TITLE     = "Analytical Solution Domenico, JH 1987"
VARIABLES = "x"
"y"
"z"
"C/C0"
ZONE T="Rectangular zone"
I=101, J=51, K=1, ZONETYPE=Ordered
DATAPACKING=POINT
DT=(SINGLE SINGLE SINGLE SINGLE )
0.000000e+000  5.000000e+001  0.000000e+000  0.000000e+000 
1.000000e+000  5.000000e+001  0.000000e+000  7.529363e-013 
2.000000e+000  5.000000e+001  0.000000e+000  -1.288357e-013 
3.000000e+000  5.000000e+001  0.000000e+000  1.881724e-014 
4.000000e+000  5.000000e+001  0.000000e+000  -2.818098e-014 
5.000000e+000  5.000000e+001  0.000000e+000  -6.735359e-015 
6.000000e+000  5.000000e+001  0.000000e+000  1.647706e-015 
7.000000e+000  5.000000e+001  0.000000e+000  4.857275e-015 
8.000000e+000  5.000000e+001  0.000000e+000  1.779188e-014 
9.000000e+000  5.000000e+001  0.000000e+000  4.576172e-014 
1.000000e+001  5.000000e+001  0.000000e+000  1.658720e-013 
1.100000e+001  5.000000e+001  0.000000e+000  5.416534e-013 
1.200000e+001  5.000000e+001  0.000000e+000  1.654698e-012 
1.300000e+001  5.000000e+001  0.000000e+000  4.712638e-012 
1.400000e+001  5.000000e+001  0.000000e+000  1.257541e-011 
1.500000e+001  5.000000e+001  0.000000e+000  3.159175e-011 
1.600000e+001  5.000000e+001  0.000000e+000  7.503653e-011 
1.700000e+001  5.000000e+001  0.000000e+000  1.691816e-010 
1.800000e+001  5.000000e+001  0.000000e+000  3.634361e-010 
1.900000e+001  5.000000e+001  0.000000e+000  7.464451e-010 
2.000000e+001  5.000000e+001  0.000000e+000  1.470469e-009 
2.100000e+001  5.000000e+001  0.000000e+000  2.786725e-009 
2.200000e+001  5.000000e+001  0.000000e+000  5.094599e-009 
2.300000e+001  5.000000e+001  0.000000e+000  9.007627e-009 
2.400000e+001  5.000000e+001  0.000000e+000  1.543897e-008 
2.500000e+001  5.000000e+001  0.000000e+000  2.570861e-008 
2.600000e+001  5.000000e+001  0.000000e+000  4.167378e-008 
2.700000e+001  5.000000e+001  0.000000e+000  6.588325e-008 
2.800000e+001  5.000000e+001  0.000000e+000  1.017552e-007 
2.900000e+001  5.000000e+001  0.000000e+000  1.537770e-007 
3.000000e+001  5.000000e+001  0.000000e+000  2.277246e-007 
3.100000e+001  5.000000e+001  0.000000e+000  3.308977e-007 
3.200000e+001  5.000000e+001  0.000000e+000  4.723671e-007 
3.300000e+001  5.000000e+001  0.000000e+000  6.632282e-007 
3.400000e+001  5.000000e+001  0.000000e+000  9.168562e-007 
3.500000e+001  5.000000e+001  0.000000e+000  1.249158e-006 
3.600000e+001  5.000000e+001  0.000000e+000  1.678812e-006 
3.700000e+001  5.000000e+001  0.000000e+000  2.227497e-006 
3.800000e+001  5.000000e+001  0.000000e+000  2.920101e-006 
3.900000e+001  5.000000e+001  0.000000e+000  3.784898e-006 
4.000000e+001  5.000000e+001  0.000000e+000  4.853716e-006 
4.100000e+001  5.000000e+001  0.000000e+000  6.162051e-006 
4.200000e+001  5.000000e+001  0.000000e+000  7.749173e-006 
4.300000e+001  5.000000e+001  0.000000e+000  9.658176e-006 
4.400000e+001  5.000000e+001  0.000000e+000  1.193601e-005 
4.500000e+001  5.000000e+001  0.000000e+000  1.463348e-005 
4.600000e+001  5.000000e+001  0.000000e+000  1.780520e-005 
4.700000e+001  5.000000e+001  0.000000e+000  2.150949e-005 
4.800000e+001  5.000000e+001  0.000000e+000  2.580831e-005 
4.900000e+001  5.000000e+001  0.000000e+000  3.076708e-005 
5.000000e+001  5.000000e+001  0.000000e+000  3.645451e-005 
5.100000e+001  5.000000e+001  0.000000e+000  4.294233e-005 
5.200000e+001  5.000000e+001  0.000000e+000  5.030497e-005 
5.300000e+001  5.000000e+001  0.000000e+000  5.861909e-005 
5.400000e+001  5.000000e+001  0.000000e+000  6.796297e-005 
5.500000e+001  5.000000e+001  0.000000e+000  7.841550e-005 
5.600000e+001  5.000000e+001  0.000000e+000  9.005476e-005 
5.700000e+001  5.000000e+001  0.000000e+000  1.029558e-004 
5.800000e+001  5.000000e+001  0.000000e+000  1.171876e-004 
5.900000e+001  5.000000e+001  0.000000e+000  1.328081e-004 
6.000000e+001  5.000000e+001  0.000000e+000  1.498580e-004 
6.100000e+001  5.000000e+001  0.000000e+000  1.683517e-004 
6.200000e+001  5.000000e+001  0.000000e+000  1.882659e-004 
6.300000e+001  5.000000e+001  0.000000e+000  2.095252e-004 
6.400000e+001  5.000000e+001  0.000000e+000  2.319859e-004 
6.500000e+001  5.000000e+001  0.000000e+000  2.554182e-004 
6.600000e+001  5.000000e+001  0.000000e+000  2.794889e-004 
6.700000e+001  5.000000e+001  0.000000e+000  3.037473e-004 
6.800000e+001  5.000000e+001  0.000000e+000  3.276173e-004 
6.900000e+001  5.000000e+001  0.000000e+000  3.504014e-004 
7.000000e+001  5.000000e+001  0.000000e+000  3.712917e-004 
7.100000e+001  5.000000e+001  0.000000e+000  3.894180e-004 
7.200000e+001  5.000000e+001  0.000000e+000  4.038689e-004 
7.300000e+001  5.000000e+001  0.000000e+000  4.137819e-004 
7.400000e+001  5.000000e+001  0.000000e+000  4.184012e-004 
7.500000e+001  5.000000e+001  0.000000e+000  4.171591e-004 
7.600000e+001  5.000000e+001  0.000000e+000  4.097453e-004 
7.700000e+001  5.000000e+001  0.000000e+000  3.961541e-004 
7.800000e+001  5.000000e+001  0.000000e+000  3.767126e-004 
7.900000e+001  5.000000e+001  0.000000e+000  3.520748e-004 
8.000000e+001  5.000000e+001  0.000000e+000  3.231811e-004 
8.100000e+001  5.000000e+001  0.000000e+000  2.911890e-004 
8.200000e+001  5.000000e+001  0.000000e+000  2.573815e-004 
8.300000e+001  5.000000e+001  0.000000e+000  2.230646e-004 
8.400000e+001  5.000000e+001  0.000000e+000  1.894670e-004 
8.500000e+001  5.000000e+001  0.000000e+000  1.576529e-004 
8.600000e+001  5.000000e+001  0.000000e+000  1.284625e-004 
8.700000e+001  5.000000e+001  0.000000e+000  1.024715e-004 
8.800000e+001  5.000000e+001  0.000000e+000  7.999308e-005 
8.900000e+001  5.000000e+001  0.000000e+000  6.109406e-005 
9.000000e+001  5.000000e+001  0.000000e+000  4.563901e-005 
9.100000e+001  5.000000e+001  0.000000e+000  3.333670e-005 
9.200000e+001  5.000000e+001  0.000000e+000  2.381122e-005 
9.300000e+001  5.000000e+001  0.000000e+000  1.662473e-005 
9.400000e+001  5.000000e+001  0.000000e+000  1.134382e-005 
9.500000e+001  5.000000e+001  0.000000e+000  7.563953e-006 
9.600000e+001  5.000000e+001  0.000000e+000  4.927861e-006 
9.700000e+001  5.000000e+001  0.000000e+000  3.136474e-006 
9.800000e+001  5.000000e+001  0.000000e+000  1.950052e-006 
9.900000e+001  5.000000e+001  0.000000e+000  1.184198e-006 
1.000000e+002  5.000000e+001  0.000000e+000  7.023235e-007 
0.000000e+000  4.900000e+001  0.000000e+000  0.000000e+000 
1.000000e+000  4.900000e+001  0.000000e+000  4.216634e-012 
2.000000e+000  4.900000e+001  0.000000e+000  -9.509750e-014 
3.000000e+000  4.900000e+001  0.000000e+000  -1.433111e-014 
4.000000e+000  4.900000e+001  0.000000e+000  -6.244272e-014 
5.000000e+000  4.900000e+001  0.000000e+000  -4.620207e-015 
6.000000e+000  4.900000e+001  0.000000e+000  3.262564e-015 
7.000000e+000  4.900000e+001  0.000000e+000  1.174155e-014 
8.000000e+000  4.900000e+001  0.000000e+000  4.378645e-014 
9.000000e+000  4.900000e+001  0.000000e+000  1.571735e-013 
1.000000e+001  4.900000e+001  0.000000e+000  5.432902e-013 
1.100000e+001  4.900000e+001  0.000000e+000  1.729625e-012 
1.200000e+001  4.900000e+001  0.000000e+000  5.098630e-012 
1.300000e+001  4.900000e+001  0.000000e+000  1.400669e-011 
1.400000e+001  4.900000e+001  0.000000e+000  3.605211e-011 
1.500000e+001  4.900000e+001  0.000000e+000  8.736711e-011 
1.600000e+001  4.900000e+001  0.000000e+000  2.002402e-010 
1.700000e+001  4.900000e+001  0.000000e+000  4.358722e-010 
1.800000e+001  4.900000e+001  0.000000e+000  9.045957e-010 
1.900000e+001  4.900000e+001  0.000000e+000  1.796365e-009 
2.000000e+001  4.900000e+001  0.000000e+000  3.424654e-009 
2.100000e+001  4.900000e+001  0.000000e+000  6.287043e-009 
2.200000e+001  4.900000e+001  0.000000e+000  1.114562e-008 
2.300000e+001  4.900000e+001  0.000000e+000  1.912989e-008 
2.400000e+001  4.900000e+001  0.000000e+000  3.186417e-008 
2.500000e+001  4.900000e+001  0.000000e+000  5.162046e-008 
2.600000e+001  4.900000e+001  0.000000e+000  8.149671e-008 
2.700000e+001  4.900000e+001  0.000000e+000  1.256190e-007 
2.800000e+001  4.900000e+001  0.000000e+000  1.893654e-007 
2.900000e+001  4.900000e+001  0.000000e+000  2.796073e-007 
3.000000e+001  4.900000e+001  0.000000e+000  4.049642e-007 
3.100000e+001  4.900000e+001  0.000000e+000  5.760667e-007 
3.200000e+001  4.900000e+001  0.000000e+000  8.058212e-007 
3.300000e+001  4.900000e+001  0.000000e+000  1.109671e-006 
3.400000e+001  4.900000e+001  0.000000e+000  1.505849e-006 
3.500000e+001  4.900000e+001  0.000000e+000  2.015612e-006 
3.600000e+001  4.900000e+001  0.000000e+000  2.663461e-006 
3.700000e+001  4.900000e+001  0.000000e+000  3.477327e-006 
3.800000e+001  4.900000e+001  0.000000e+000  4.488742e-006 
3.900000e+001  4.900000e+001  0.000000e+000  5.732964e-006 
4.000000e+001  4.900000e+001  0.000000e+000  7.249078e-006 
4.100000e+001  4.900000e+001  0.000000e+000  9.080060e-006 
4.200000e+001  4.900000e+001  0.000000e+000  1.127281e-005 
4.300000e+001  4.900000e+001  0.000000e+000  1.387812e-005 
4.400000e+001  4.900000e+001  0.000000e+000  1.695069e-005 
4.500000e+001  4.900000e+001  0.000000e+000  2.054897e-005 
4.600000e+001  4.900000e+001  0.000000e+000  2.473512e-005 
4.700000e+001  4.900000e+001  0.000000e+000  2.957485e-005 
4.800000e+001  4.900000e+001  0.000000e+000  3.513725e-005 
4.900000e+001  4.900000e+001  0.000000e+000  4.149455e-005 
5.000000e+001  4.900000e+001  0.000000e+000  4.872195e-005 
5.100000e+001  4.900000e+001  0.000000e+000  5.689723e-005 
5.200000e+001  4.900000e+001  0.000000e+000  6.610044e-005 
5.300000e+001  4.900000e+001  0.000000e+000  7.641332e-005 
5.400000e+001  4.900000e+001  0.000000e+000  8.791861e-005 
5.500000e+001  4.900000e+001  0.000000e+000  1.006989e-004 
5.600000e+001  4.900000e+001  0.000000e+000  1.148351e-004 
5.700000e+001  4.900000e+001  0.000000e+000  1.304039e-004 
5.800000e+001  4.900000e+001  0.000000e+000  1.474741e-004 
5.900000e+001  4.900000e+001  0.000000e+000  1.661016e-004 
6.000000e+001  4.900000e+001  0.000000e+000  1.863215e-004 
6.100000e+001  4.900000e+001  0.000000e+000  2.081385e-004 
6.200000e+001  4.900000e+001  0.000000e+000  2.315138e-004 
6.300000e+001  4.900000e+001  0.000000e+000  2.563488e-004 
6.400000e+001  4.900000e+001  0.000000e+000  2.824667e-004 
6.500000e+001  4.900000e+001  0.000000e+000  3.095923e-004 
6.600000e+001  4.900000e+001  0.000000e+000  3.373326e-004 
6.700000e+001  4.900000e+001  0.000000e+000  3.651617e-004 
6.800000e+001  4.900000e+001  0.000000e+000  3.924113e-004 
6.900000e+001  4.900000e+001  0.000000e+000  4.182766e-004 
7.000000e+001  4.900000e+001  0.000000e+000  4.418299e-004 
7.100000e+001  4.900000e+001  0.000000e+000  4.620737e-004 
7.200000e+001  4.900000e+001  0.000000e+000  4.779700e-004 
7.300000e+001  4.900000e+001  0.000000e+000  4.885395e-004 
7.400000e+001  4.900000e+001  0.000000e+000  4.929305e-004 
7.500000e+001  4.900000e+001  0.000000e+000  4.905111e-004 
7.600000e+001  4.900000e+001  0.000000e+000  4.809472e-004 
7.700000e+001  4.900000e+001  0.000000e+000  4.642575e-004 
7.800000e+001  4.900000e+001  0.000000e+000  4.408437e-004 
7.900000e+001  4.900000e+001  0.000000e+000  4.114817e-004 
8.000000e+001  4.900000e+001  0.000000e+000  3.772749e-004 
8.100000e+001  4.900000e+001  0.000000e+000  3.395727e-004 
8.200000e+001  4.900000e+001  0.000000e+000  2.998647e-004 
8.300000e+001  4.900000e+001  0.000000e+000  2.596619e-004 
8.400000e+001  4.900000e+001  0.000000e+000  2.203820e-004 
8.500000e+001  4.900000e+001  0.000000e+000  1.832487e-004 
8.600000e+001  4.900000e+001  0.000000e+000  1.492242e-004 
8.700000e+001  4.900000e+001  0.000000e+000  1.189639e-004 
8.800000e+001  4.900000e+001  0.000000e+000  9.281869e-005 
8.900000e+001  4.900000e+001  0.000000e+000  7.085543e-005 
9.000000e+001  4.900000e+001  0.000000e+000  5.290776e-005 
9.100000e+001  4.900000e+001  0.000000e+000  3.863104e-005 
9.200000e+001  4.900000e+001  0.000000e+000  2.758231e-005 
9.300000e+001  4.900000e+001  0.000000e+000  1.925097e-005 
9.400000e+001  4.900000e+001  0.000000e+000  1.313169e-005 
9.500000e+001  4.900000e+001  0.000000e+000  8.753540e-006 
9.600000e+001  4.900000e+001  0.000000e+000  5.701338e-006 
9.700000e+001  4.900000e+001  0.000000e+000  3.627868e-006 
9.800000e+001  4.900000e+001  0.000000e+000  2.255043e-006 
9.900000e+001  4.900000e+001  0.000000e+000  1.369111e-006 
1.000000e+002  4.900000e+001  0.000000e+000  8.118278e-007 
0.000000e+000  4.800000e+001  0.000000e+000  0.000000e+000 
1.000000e+000  4.800000e+001  0.000000e+000  5.801033e-014 
2.000000e+000  4.800000e+001  0.000000e+000  -1.093685e-014 
3.000000e+000  4.800000e+001  0.000000e+000  -1.203939e-013 
4.000000e+000  4.800000e+001  0.000000e+000  2.540766e-013 
5.000000e+000  4.800000e+001  0.000000e+000  2.317622e-015 
6.000000e+000  4.800000e+001  0.000000e+000  1.664502e-014 
7.000000e+000  4.800000e+001  0.000000e+000  7.042101e-014 
8.000000e+000  4.800000e+001  0.000000e+000  2.749540e-013 
9.000000e+000  4.800000e+001  0.000000e+000  9.884344e-013 
1.000000e+001  4.800000e+001  0.000000e+000  3.378668e-012 
1.100000e+001  4.800000e+001  0.000000e+000  1.032541e-011 
1.200000e+001  4.800000e+001  0.000000e+000  2.919906e-011 
1.300000e+001  4.800000e+001  0.000000e+000  7.690634e-011 
1.400000e+001  4.800000e+001  0.000000e+000  1.897205e-010 
1.500000e+001  4.800000e+001  0.000000e+000  4.406194e-010 
1.600000e+001  4.800000e+001  0.000000e+000  9.680047e-010 
1.700000e+001  4.800000e+001  0.000000e+000  2.020523e-009 
1.800000e+001  4.800000e+001  0.000000e+000  4.023282e-009 
1.900000e+001  4.800000e+001  0.000000e+000  7.670855e-009 
2.000000e+001  4.800000e+001  0.000000e+000  1.405201e-008 
2.100000e+001  4.800000e+001  0.000000e+000  2.480990e-008 
2.200000e+001  4.800000e+001  0.000000e+000  4.233997e-008 
2.300000e+001  4.800000e+001  0.000000e+000  7.002537e-008 
2.400000e+001  4.800000e+001  0.000000e+000  1.125078e-007 
2.500000e+001  4.800000e+001  0.000000e+000  1.759893e-007 
2.600000e+001  4.800000e+001  0.000000e+000  2.685576e-007 
2.700000e+001  4.800000e+001  0.000000e+000  4.005281e-007 
2.800000e+001  4.800000e+001  0.000000e+000  5.847918e-007 
2.900000e+001  4.800000e+001  0.000000e+000  8.371604e-007 
3.000000e+001  4.800000e+001  0.000000e+000  1.176697e-006 
3.100000e+001  4.800000e+001  0.000000e+000  1.626027e-006 
3.200000e+001  4.800000e+001  0.000000e+000  2.211612e-006 
3.300000e+001  4.800000e+001  0.000000e+000  2.963995e-006 
3.400000e+001  4.800000e+001  0.000000e+000  3.917993e-006 
3.500000e+001  4.800000e+001  0.000000e+000  5.112850e-006 
3.600000e+001  4.800000e+001  0.000000e+000  6.592329e-006 
3.700000e+001  4.800000e+001  0.000000e+000  8.404770e-006 
3.800000e+001  4.800000e+001  0.000000e+000  1.060308e-005 
3.900000e+001  4.800000e+001  0.000000e+000  1.324468e-005 
4.000000e+001  4.800000e+001  0.000000e+000  1.639141e-005 
4.100000e+001  4.800000e+001  0.000000e+000  2.010940e-005 
4.200000e+001  4.800000e+001  0.000000e+000  2.446888e-005 
4.300000e+001  4.800000e+001  0.000000e+000  2.954394e-005 
4.400000e+001  4.800000e+001  0.000000e+000  3.541233e-005 
4.500000e+001  4.800000e+001  0.000000e+000  4.215517e-005 
4.600000e+001  4.800000e+001  0.000000e+000  4.985663e-005 
4.700000e+001  4.800000e+001  0.000000e+000  5.860367e-005 
4.800000e+001  4.800000e+001  0.000000e+000  6.848565e-005 
4.900000e+001  4.800000e+001  0.000000e+000  7.959402e-005 
5.000000e+001  4.800000e+001  0.000000e+000  9.202188e-005 
5.100000e+001  4.800000e+001  0.000000e+000  1.058636e-004 
5.200000e+001  4.800000e+001  0.000000e+000  1.212143e-004 
5.300000e+001  4.800000e+001  0.000000e+000  1.381689e-004 
5.400000e+001  4.800000e+001  0.000000e+000  1.568216e-004 
5.500000e+001  4.800000e+001  0.000000e+000  1.772639e-004 
5.600000e+001  4.800000e+001  0.000000e+000  1.995830e-004 
5.700000e+001  4.800000e+001  0.000000e+000  2.238577e-004 
5.800000e+001  4.800000e+001  0.000000e+000  2.501542e-004 
5.900000e+001  4.800000e+001  0.000000e+000  2.785185e-004 
6.000000e+001  4.800000e+001  0.000000e+000  3.089662e-004 
6.100000e+001  4.800000e+001  0.000000e+000  3.414689e-004 
6.200000e+001  4.800000e+001  0.000000e+000  3.759361e-004 
6.300000e+001  4.800000e+001  0.000000e+000  4.121932e-004 
6.400000e+001  4.800000e+001  0.000000e+000  4.499560e-004 
6.500000e+001  4.800000e+001  0.000000e+000  4.888036e-004 
6.600000e+001  4.800000e+001  0.000000e+000  5.281522e-004 
6.700000e+001  4.800000e+001  0.000000e+000  5.672343e-004 
6.800000e+001  4.800000e+001  0.000000e+000  6.050890e-004 
6.900000e+001  4.800000e+001  0.000000e+000  6.405696e-004 
7.000000e+001  4.800000e+001  0.000000e+000  6.723675e-004 
7.100000e+001  4.800000e+001  0.000000e+000  6.990824e-004 
7.200000e+001  4.800000e+001  0.000000e+000  7.192757e-004 
7.300000e+001  4.800000e+001  0.000000e+000  7.316001e-004 
7.400000e+001  4.800000e+001  0.000000e+000  7.349032e-004 
7.500000e+001  4.800000e+001  0.000000e+000  7.283536e-004 
7.600000e+001  4.800000e+001  0.000000e+000  7.115493e-004 
7.700000e+001  4.800000e+001  0.000000e+000  6.845934e-004 
7.800000e+001  4.800000e+001  0.000000e+000  6.481316e-004 
7.900000e+001  4.800000e+001  0.000000e+000  6.033367e-004 
8.000000e+001  4.800000e+001  0.000000e+000  5.518377e-004 
8.100000e+001  4.800000e+001  0.000000e+000  4.956017e-004 
8.200000e+001  4.800000e+001  0.000000e+000  4.367807e-004 
8.300000e+001  4.800000e+001  0.000000e+000  3.775432e-004 
8.400000e+001  4.800000e+001  0.000000e+000  3.199101e-004 
8.500000e+001  4.800000e+001  0.000000e+000  2.656148e-004 
8.600000e+001  4.800000e+001  0.000000e+000  2.160070e-004 
8.700000e+001  4.800000e+001  0.000000e+000  1.719940e-004 
8.800000e+001  4.800000e+001  0.000000e+000  1.340445e-004 
8.900000e+001  4.800000e+001  0.000000e+000  1.022221e-004 
9.000000e+001  4.800000e+001  0.000000e+000  7.625819e-005 
9.100000e+001  4.800000e+001  0.000000e+000  5.563440e-005 
9.200000e+001  4.800000e+001  0.000000e+000  3.969076e-005 
9.300000e+001  4.800000e+001  0.000000e+000  2.768164e-005 
9.400000e+001  4.800000e+001  0.000000e+000  1.886990e-005 
9.500000e+001  4.800000e+001  0.000000e+000  1.257084e-005 
9.600000e+001  4.800000e+001  0.000000e+000  8.182954e-006 
9.700000e+001  4.800000e+001  0.000000e+000  5.204201e-006 
9.800000e+001  4.800000e+001  0.000000e+000  3.233274e-006 
9.900000e+001  4.800000e+001  0.000000e+000  1.962126e-006 
1.000000e+002  4.800000e+001  0.000000e+000  1.162962e-006 
0.000000e+000  4.700000e+001  0.000000e+000  0.000000e+000 
1.000000e+000  4.700000e+001  0.000000e+000  3.768489e-013 
2.000000e+000  4.700000e+001  0.000000e+000  4.026083e-013 
3.000000e+000  4.700000e+001  0.000000e+000  1.227699e-013 
4.000000e+000  4.700000e+001  0.000000e+000  1.805034e-013 
5.000000e+000  4.700000e+001  0.000000e+000  2.690214e-014 
6.000000e+000  4.700000e+001  0.000000e+000  1.139068e-013 
7.000000e+000  4.700000e+001  0.000000e+000  4.875770e-013 
8.000000e+000  4.700000e+001  0.000000e+000  1.884484e-012 
9.000000e+000  4.700000e+001  0.000000e+000  6.617898e-012 
1.000000e+001  4.700000e+001  0.000000e+000  2.111429e-011 
1.100000e+001  4.700000e+001  0.000000e+000  6.186871e-011 
1.200000e+001  4.700000e+001  0.000000e+000  1.677074e-010 
1.300000e+001  4.700000e+001  0.000000e+000  4.232589e-010 
1.400000e+001  4.700000e+001  0.000000e+000  1.000481e-009 
1.500000e+001  4.700000e+001  0.000000e+000  2.227061e-009 
1.600000e+001  4.700000e+001  0.000000e+000  4.691851e-009 
1.700000e+001  4.700000e+001  0.000000e+000  9.398206e-009 
1.800000e+001  4.700000e+001  0.000000e+000  1.797451e-008 
1.900000e+001  4.700000e+001  0.000000e+000  3.294936e-008 
2.000000e+001  4.700000e+001  0.000000e+000  5.809446e-008 
2.100000e+001  4.700000e+001  0.000000e+000  9.883375e-008 
2.200000e+001  4.700000e+001  0.000000e+000  1.627118e-007 
2.300000e+001  4.700000e+001  0.000000e+000  2.599098e-007 
2.400000e+001  4.700000e+001  0.000000e+000  4.037931e-007 
2.500000e+001  4.700000e+001  0.000000e+000  6.114714e-007 
2.600000e+001  4.700000e+001  0.000000e+000  9.043507e-007 
2.700000e+001  4.700000e+001  0.000000e+000  1.308657e-006 
2.800000e+001  4.700000e+001  0.000000e+000  1.855912e-006 
2.900000e+001  4.700000e+001  0.000000e+000  2.583344e-006 
3.000000e+001  4.700000e+001  0.000000e+000  3.534220e-006 
3.100000e+001  4.700000e+001  0.000000e+000  4.758092e-006 
3.200000e+001  4.700000e+001  0.000000e+000  6.310943e-006 
3.300000e+001  4.700000e+001  0.000000e+000  8.255242e-006 
3.400000e+001  4.700000e+001  0.000000e+000  1.065990e-005 
3.500000e+001  4.700000e+001  0.000000e+000  1.360013e-005 
3.600000e+001  4.700000e+001  0.000000e+000  1.715722e-005 
3.700000e+001  4.700000e+001  0.000000e+000  2.141827e-005 
3.800000e+001  4.700000e+001  0.000000e+000  2.647576e-005 
3.900000e+001  4.700000e+001  0.000000e+000  3.242717e-005 
4.000000e+001  4.700000e+001  0.000000e+000  3.937452e-005 
4.100000e+001  4.700000e+001  0.000000e+000  4.742380e-005 
4.200000e+001  4.700000e+001  0.000000e+000  5.668450e-005 
4.300000e+001  4.700000e+001  0.000000e+000  6.726903e-005 
4.400000e+001  4.700000e+001  0.000000e+000  7.929215e-005 
4.500000e+001  4.700000e+001  0.000000e+000  9.287043e-005 
4.600000e+001  4.700000e+001  0.000000e+000  1.081217e-004 
4.700000e+001  4.700000e+001  0.000000e+000  1.251645e-004 
4.800000e+001  4.700000e+001  0.000000e+000  1.441175e-004 
4.900000e+001  4.700000e+001  0.000000e+000  1.650990e-004 
5.000000e+001  4.700000e+001  0.000000e+000  1.882264e-004 
5.100000e+001  4.700000e+001  0.000000e+000  2.136156e-004 
5.200000e+001  4.700000e+001  0.000000e+000  2.413802e-004 
5.300000e+001  4.700000e+001  0.000000e+000  2.716306e-004 
5.400000e+001  4.700000e+001  0.000000e+000  3.044727e-004 
5.500000e+001  4.700000e+001  0.000000e+000  3.400056e-004 
5.600000e+001  4.700000e+001  0.000000e+000  3.783187e-004 
5.700000e+001  4.700000e+001  0.000000e+000  4.194868e-004 
5.800000e+001  4.700000e+001  0.000000e+000  4.635623e-004 
5.900000e+001  4.700000e+001  0.000000e+000  5.105652e-004 
6.000000e+001  4.700000e+001  0.000000e+000  5.604670e-004 
6.100000e+001  4.700000e+001  0.000000e+000  6.131706e-004 
6.200000e+001  4.700000e+001  0.000000e+000  6.684827e-004 
6.300000e+001  4.700000e+001  0.000000e+000  7.260814e-004 
6.400000e+001  4.700000e+001  0.000000e+000  7.854777e-004 
6.500000e+001  4.700000e+001  0.000000e+000  8.459747e-004 
6.600000e+001  4.700000e+001  0.000000e+000  9.066295e-004 
6.700000e+001  4.700000e+001  0.000000e+000  9.662236e-004 
6.800000e+001  4.700000e+001  0.000000e+000  1.023250e-003 
6.900000e+001  4.700000e+001  0.000000e+000  1.075927e-003 
7.000000e+001  4.700000e+001  0.000000e+000  1.122240e-003 
7.100000e+001  4.700000e+001  0.000000e+000  1.160045e-003 
7.200000e+001  4.700000e+001  0.000000e+000  1.187167e-003 
7.300000e+001  4.700000e+001  0.000000e+000  1.201586e-003 
7.400000e+001  4.700000e+001  0.000000e+000  1.201605e-003 
7.500000e+001  4.700000e+001  0.000000e+000  1.186041e-003 
7.600000e+001  4.700000e+001  0.000000e+000  1.154388e-003 
7.700000e+001  4.700000e+001  0.000000e+000  1.106929e-003 
7.800000e+001  4.700000e+001  0.000000e+000  1.044790e-003 
7.900000e+001  4.700000e+001  0.000000e+000  9.699089e-004 
8.000000e+001  4.700000e+001  0.000000e+000  8.849169e-004 
8.100000e+001  4.700000e+001  0.000000e+000  7.929525e-004 
8.200000e+001  4.700000e+001  0.000000e+000  6.974197e-004 
8.300000e+001  4.700000e+001  0.000000e+000  6.017239e-004 
8.400000e+001  4.700000e+001  0.000000e+000  5.090179e-004 
8.500000e+001  4.700000e+001  0.000000e+000  4.219872e-004 
8.600000e+001  4.700000e+001  0.000000e+000  3.427011e-004 
8.700000e+001  4.700000e+001  0.000000e+000  2.725309e-004 
8.800000e+001  4.700000e+001  0.000000e+000  2.121551e-004 
8.900000e+001  4.700000e+001  0.000000e+000  1.616197e-004 
9.000000e+001  4.700000e+001  0.000000e+000  1.204536e-004 
9.100000e+001  4.700000e+001  0.000000e+000  8.780187e-005 
9.200000e+001  4.700000e+001  0.000000e+000  6.258822e-005 
9.300000e+001  4.700000e+001  0.000000e+000  4.361814e-005 
9.400000e+001  4.700000e+001  0.000000e+000  2.971300e-005 
9.500000e+001  4.700000e+001  0.000000e+000  1.978176e-005 
9.600000e+001  4.700000e+001  0.000000e+000  1.286932e-005 
9.700000e+001  4.700000e+001  0.000000e+000  8.180167e-006 
9.800000e+001  4.700000e+001  0.000000e+000  5.079601e-006 
9.900000e+001  4.700000e+001  0.000000e+000  3.081119e-006 
1.000000e+002  4.700000e+001  0.000000e+000  1.825387e-006 
0.000000e+000  4.600000e+001  0.000000e+000  0.000000e+000 
1.000000e+000  4.600000e+001  0.000000e+000  -6.301315e-013 
2.000000e+000  4.600000e+001  0.000000e+000  1.330780e-013 
3.000000e+000  4.600000e+001  0.000000e+000  -1.529643e-014 
4.000000e+000  4.600000e+001  0.000000e+000  3.093175e-014 
5.000000e+000  4.600000e+001  0.000000e+000  1.769966e-013 
6.000000e+000  4.600000e+001  0.000000e+000  7.188935e-013 
7.000000e+000  4.600000e+001  0.000000e+000  3.384086e-012 
8.000000e+000  4.600000e+001  0.000000e+000  1.261218e-011 
9.000000e+000  4.600000e+001  0.000000e+000  4.234989e-011 
1.000000e+001  4.600000e+001  0.000000e+000  1.293829e-010 
1.100000e+001  4.600000e+001  0.000000e+000  3.626678e-010 
1.200000e+001  4.600000e+001  0.000000e+000  9.398458e-010 
1.300000e+001  4.600000e+001  0.000000e+000  2.267354e-009 
1.400000e+001  4.600000e+001  0.000000e+000  5.124369e-009 
1.500000e+001  4.600000e+001  0.000000e+000  1.091248e-008 
1.600000e+001  4.600000e+001  0.000000e+000  2.201156e-008 
1.700000e+001  4.600000e+001  0.000000e+000  4.225702e-008 
1.800000e+001  4.600000e+001  0.000000e+000  7.754489e-008 
1.900000e+001  4.600000e+001  0.000000e+000  1.365600e-007 
2.000000e+001  4.600000e+001  0.000000e+000  2.316105e-007 
2.100000e+001  4.600000e+001  0.000000e+000  3.795407e-007 
2.200000e+001  4.600000e+001  0.000000e+000  6.026851e-007 
2.300000e+001  4.600000e+001  0.000000e+000  9.298223e-007 
2.400000e+001  4.600000e+001  0.000000e+000  1.397083e-006 
2.500000e+001  4.600000e+001  0.000000e+000  2.048774e-006 
2.600000e+001  4.600000e+001  0.000000e+000  2.938070e-006 
2.700000e+001  4.600000e+001  0.000000e+000  4.127567e-006 
2.800000e+001  4.600000e+001  0.000000e+000  5.689642e-006 
2.900000e+001  4.600000e+001  0.000000e+000  7.706642e-006 
3.000000e+001  4.600000e+001  0.000000e+000  1.027087e-005 
3.100000e+001  4.600000e+001  0.000000e+000  1.348440e-005 
3.200000e+001  4.600000e+001  0.000000e+000  1.745870e-005 
3.300000e+001  4.600000e+001  0.000000e+000  2.231412e-005 
3.400000e+001  4.600000e+001  0.000000e+000  2.817920e-005 
3.500000e+001  4.600000e+001  0.000000e+000  3.518992e-005 
3.600000e+001  4.600000e+001  0.000000e+000  4.348883e-005 
3.700000e+001  4.600000e+001  0.000000e+000  5.322410e-005 
3.800000e+001  4.600000e+001  0.000000e+000  6.454853e-005 
3.900000e+001  4.600000e+001  0.000000e+000  7.761858e-005 
4.000000e+001  4.600000e+001  0.000000e+000  9.259331e-005 
4.100000e+001  4.600000e+001  0.000000e+000  1.096334e-004 
4.200000e+001  4.600000e+001  0.000000e+000  1.289003e-004 
4.300000e+001  4.600000e+001  0.000000e+000  1.505550e-004 
4.400000e+001  4.600000e+001  0.000000e+000  1.747575e-004 
4.500000e+001  4.600000e+001  0.000000e+000  2.016658e-004 
4.600000e+001  4.600000e+001  0.000000e+000  2.314350e-004 
4.700000e+001  4.600000e+001  0.000000e+000  2.642170e-004 
4.800000e+001  4.600000e+001  0.000000e+000  3.001593e-004 
4.900000e+001  4.600000e+001  0.000000e+000  3.394049e-004 
5.000000e+001  4.600000e+001  0.000000e+000  3.820912e-004 
5.100000e+001  4.600000e+001  0.000000e+000  4.283498e-004 
5.200000e+001  4.600000e+001  0.000000e+000  4.783052e-004 
5.300000e+001  4.600000e+001  0.000000e+000  5.320738e-004 
5.400000e+001  4.600000e+001  0.000000e+000  5.897623e-004 
5.500000e+001  4.600000e+001  0.000000e+000  6.514641e-004 
5.600000e+001  4.600000e+001  0.000000e+000  7.172554e-004 
5.700000e+001  4.600000e+001  0.000000e+000  7.871874e-004 
5.800000e+001  4.600000e+001  0.000000e+000  8.612753e-004 
5.900000e+001  4.600000e+001  0.000000e+000  9.394817e-004 
6.000000e+001  4.600000e+001  0.000000e+000  1.021693e-003 
6.100000e+001  4.600000e+001  0.000000e+000  1.107688e-003 
6.200000e+001  4.600000e+001  0.000000e+000  1.197095e-003 
6.300000e+001  4.600000e+001  0.000000e+000  1.289343e-003 
6.400000e+001  4.600000e+001  0.000000e+000  1.383600e-003 
6.500000e+001  4.600000e+001  0.000000e+000  1.478714e-003 
6.600000e+001  4.600000e+001  0.000000e+000  1.573154e-003 
6.700000e+001  4.600000e+001  0.000000e+000  1.664966e-003 
6.800000e+001  4.600000e+001  0.000000e+000  1.751754e-003 
6.900000e+001  4.600000e+001  0.000000e+000  1.830708e-003 
7.000000e+001  4.600000e+001  0.000000e+000  1.898678e-003 
7.100000e+001  4.600000e+001  0.000000e+000  1.952322e-003 
7.200000e+001  4.600000e+001  0.000000e+000  1.988288e-003 
7.300000e+001  4.600000e+001  0.000000e+000  2.003489e-003 
7.400000e+001  4.600000e+001  0.000000e+000  1.995379e-003 
7.500000e+001  4.600000e+001  0.000000e+000  1.962243e-003 
7.600000e+001  4.600000e+001  0.000000e+000  1.903449e-003 
7.700000e+001  4.600000e+001  0.000000e+000  1.819627e-003 
7.800000e+001  4.600000e+001  0.000000e+000  1.712737e-003 
7.900000e+001  4.600000e+001  0.000000e+000  1.586011e-003 
8.000000e+001  4.600000e+001  0.000000e+000  1.443762e-003 
8.100000e+001  4.600000e+001  0.000000e+000  1.291077e-003 
8.200000e+001  4.600000e+001  0.000000e+000  1.133433e-003 
8.300000e+001  4.600000e+001  0.000000e+000  9.762740e-004 