TITLE = "Time curves in points"
VARIABLES = "TIME " ConsTracer 
ZONE T="POINT=POINT555"
0.000000000000e+000 0.000000000000e+000 
2.000000000000e-001 0.000000000000e+000 
4.000000000000e-001 2.735695579595e-039 
6.000000000000e-001 1.455849193489e-039 
8.000000000000e-001 3.345942639487e-039 
1.000000000000e+000 5.175583983717e-039 
1.200000000000e+000 4.035043421209e-039 
1.400000000000e+000 1.239283291810e-039 
1.600000000000e+000 5.168943548785e-039 
1.800000000000e+000 8.784411840889e-039 
2.000000000000e+000 1.194991156997e-038 
4.000000000000e+000 1.514512890121e-038 
6.000000000000e+000 1.876218297609e-038 
8.000000000000e+000 2.257431135969e-038 
1.000000000000e+001 2.658023036535e-038 
1.200000000000e+001 3.119665264951e-038 
1.400000000000e+001 3.653198818109e-038 
1.600000000000e+001 4.239049571118e-038 
1.800000000000e+001 4.890187389086e-038 
2.000000000000e+001 5.595200556760e-038 
2.200000000000e+001 6.332939701274e-038 
4.200000000000e+001 3.970466287814e-033 
6.200000000000e+001 -2.021662328716e-024 
8.200000000000e+001 -1.741820772756e-022 
1.020000000000e+002 -4.137479858123e-021 
1.220000000000e+002 -5.833742410143e-020 
1.420000000000e+002 -5.872272262347e-019 
1.620000000000e+002 -4.582933959523e-018 
1.820000000000e+002 -2.934126652826e-017 
2.020000000000e+002 -1.583576327544e-016 
2.220000000000e+002 -7.359201995542e-016 
2.420000000000e+002 -2.992736464458e-015 
2.620000000000e+002 -1.077525316995e-014 
2.820000000000e+002 -3.468033155853e-014 
3.020000000000e+002 -1.005621683455e-013 
3.220000000000e+002 -2.645154244219e-013 
3.420000000000e+002 -6.349680154982e-013 
3.620000000000e+002 -1.398634906098e-012 
3.820000000000e+002 -2.840965796721e-012 
4.020000000000e+002 -5.345769101384e-012 
4.220000000000e+002 -9.356599485302e-012 
4.420000000000e+002 -1.528844504457e-011 
4.620000000000e+002 -2.339208878428e-011 
4.820000000000e+002 -3.359197827246e-011 
5.020000000000e+002 -4.533432459573e-011 
5.220000000000e+002 -5.748867125603e-011 
5.420000000000e+002 -6.834041293603e-011 
5.620000000000e+002 -7.569499512722e-011 
5.820000000000e+002 -7.709198358001e-011 
6.020000000000e+002 -7.010475174253e-011 
6.220000000000e+002 -5.268422940042e-011 
6.420000000000e+002 -2.349622231081e-011 
6.620000000000e+002 1.779911255950e-011 
6.820000000000e+002 7.037043426327e-011 
7.020000000000e+002 1.321750207904e-010 
7.220000000000e+002 2.000776211657e-010 
7.420000000000e+002 2.701407479488e-010 
7.620000000000e+002 3.380949163932e-010 
7.820000000000e+002 3.999999989036e-010 
8.020000000000e+002 4.531202377209e-010 
8.220000000000e+002 4.970548044027e-010 
8.420000000000e+002 5.351916936169e-010 
8.620000000000e+002 5.765824604311e-010 
8.820000000000e+002 6.383652337599e-010 
9.020000000000e+002 7.488894554045e-010 
9.220000000000e+002 9.517137871630e-010 
9.420000000000e+002 1.310654961890e-009 
9.620000000000e+002 1.916057303136e-009 
9.820000000000e+002 2.892428710771e-009 
1.002000000000e+003 4.407548951095e-009 
1.022000000000e+003 6.683101596810e-009 
1.042000000000e+003 1.000681411042e-008 
1.062000000000e+003 1.474601551161e-008 
1.082000000000e+003 2.136244153019e-008 
1.102000000000e+003 3.042803824559e-008 
1.122000000000e+003 4.264144113300e-008 
1.142000000000e+003 5.884474159739e-008 
1.162000000000e+003 8.004010104295e-008 
1.182000000000e+003 1.074057359468e-007 
1.202000000000e+003 1.423107780966e-007 
1.222000000000e+003 1.863285132209e-007 
1.242000000000e+003 2.412475179397e-007 
1.262000000000e+003 3.090802487731e-007 
1.282000000000e+003 3.920686869829e-007 
1.302000000000e+003 4.926867041825e-007 
1.322000000000e+003 6.136388871225e-007 
1.342000000000e+003 7.578556397830e-007 
1.362000000000e+003 9.284844656912e-007 
1.382000000000e+003 1.128877418483e-006 
1.402000000000e+003 1.362574794461e-006 
1.422000000000e+003 1.633285220695e-006 
1.442000000000e+003 1.944862367394e-006 
1.462000000000e+003 2.301278580134e-006 
1.482000000000e+003 2.706595785309e-006 
1.502000000000e+003 3.164934070353e-006 
1.522000000000e+003 3.680438376122e-006 
1.542000000000e+003 4.257243766584e-006 
1.562000000000e+003 4.899439755146e-006 
1.582000000000e+003 5.611034172522e-006 
1.602000000000e+003 6.395917056262e-006 
1.622000000000e+003 7.257825028610e-006 
1.642000000000e+003 8.200306607953e-006 
1.662000000000e+003 9.226688870721e-006 
1.682000000000e+003 1.034004584699e-005 
1.702000000000e+003 1.154316899439e-005 
1.722000000000e+003 1.283854005296e-005 
1.742000000000e+003 1.422830653957e-005 
1.762000000000e+003 1.571426009479e-005 
1.782000000000e+003 1.729781784933e-005 
1.802000000000e+003 1.898000693149e-005 
1.822000000000e+003 2.076145219304e-005 
1.842000000000e+003 2.264236718843e-005 
1.862000000000e+003 2.462254840244e-005 
1.882000000000e+003 2.670137268383e-005 
1.902000000000e+003 2.887779780902e-005 
1.922000000000e+003 3.115036606897e-005 
1.942000000000e+003 3.351721074539e-005 
1.962000000000e+003 3.597606531929e-005 
1.982000000000e+003 3.852427523471e-005 
2.002000000000e+003 4.115881202488e-005 
2.022000000000e+003 4.387628959476e-005 
2.122000000000e+003 5.851555664532e-005 
2.222000000000e+003 7.453694630614e-005 
2.322000000000e+003 9.126514120096e-005 
2.422000000000e+003 1.079746432662e-004 
2.522000000000e+003 1.239593990533e-004 
2.622000000000e+003 1.385899060886e-004 
2.722000000000e+003 1.513532641759e-004 
2.822000000000e+003 1.618752708859e-004 
2.922000000000e+003 1.699262883940e-004 
3.022000000000e+003 1.754141364630e-004 
3.122000000000e+003 1.783678465358e-004 
3.222000000000e+003 1.789160036374e-004 
3.322000000000e+003 1.772628748303e-004 
3.422000000000e+003 1.736648010909e-004 
3.522000000000e+003 1.684085769470e-004 
3.622000000000e+003 1.617928609943e-004 
3.722000000000e+003 1.541131022390e-004 
3.822000000000e+003 1.456500478913e-004 
3.922000000000e+003 1.366616107816e-004 
4.022000000000e+003 1.273776998262e-004 
4.122000000000e+003 1.179975310586e-004 
4.222000000000e+003 1.086889158309e-004 
4.322000000000e+003 9.958904578435e-005 
4.422000000000e+003 9.080634382795e-005 
4.522000000000e+003 8.242301349180e-005 
4.622000000000e+003 7.449798620520e-005 
4.722000000000e+003 6.707003100455e-005 
4.822000000000e+003 6.016085010682e-005 
4.922000000000e+003 5.377803473352e-005 
5.022000000000e+003 4.791779788337e-005 
5.122000000000e+003 4.256743463074e-005 
5.222000000000e+003 3.770748668478e-005 
5.322000000000e+003 3.331360736614e-005 
5.422000000000e+003 2.935813692194e-005 
5.522000000000e+003 2.581140726772e-005 
5.622000000000e+003 2.264280079632e-005 
5.722000000000e+003 1.982159068899e-005 
5.822000000000e+003 1.731759093031e-005 
5.922000000000e+003 1.510164356600e-005 
6.022000000000e+003 1.314596912533e-005 
6.122000000000e+003 1.142440393050e-005 
6.222000000000e+003 9.912545510274e-006 
6.322000000000e+003 8.587824729752e-006 
6.422000000000e+003 7.429520683819e-006 
6.522000000000e+003 6.418731974413e-006 
6.622000000000e+003 5.538315758932e-006 
6.722000000000e+003 4.772803951350e-006 
6.822000000000e+003 4.108304188326e-006 
6.922000000000e+003 3.532391639407e-006 
7.022000000000e+003 3.033996430409e-006 
7.122000000000e+003 2.603290345285e-006 
7.222000000000e+003 2.231575554686e-006 
7.322000000000e+003 1.911177365921e-006 
7.422000000000e+003 1.635342379969e-006 
7.522000000000e+003 1.398142954323e-006 
7.622000000000e+003 1.194388487919e-006 
7.722000000000e+003 1.019543749275e-006 
7.822000000000e+003 8.696542454636e-007 
7.922000000000e+003 7.412784653922e-007 
8.022000000000e+003 6.314267139519e-007 
8.122000000000e+003 5.375061747063e-007 
8.222000000000e+003 4.572717897898e-007 
8.322000000000e+003 3.887825196798e-007 
8.422000000000e+003 3.303625370709e-007 
8.522000000000e+003 2.805669136474e-007 
8.622000000000e+003 2.381513725052e-007 
8.722000000000e+003 2.020456995163e-007 
8.822000000000e+003 1.713304314948e-007 
8.922000000000e+003 1.452164662609e-007 
9.022000000000e+003 1.230272679050e-007 
9.122000000000e+003 1.041833689303e-007 
9.222000000000e+003 8.818889871092e-008 
9.322000000000e+003 7.461989429633e-008 
9.422000000000e+003 6.311417475574e-008 
9.522000000000e+003 5.336258370061e-008 
9.622000000000e+003 4.510142628538e-008 
9.722000000000e+003 3.810594683034e-008 
9.822000000000e+003 3.218471123181e-008 
9.922000000000e+003 2.717477461062e-008 
1.002200000000e+004 2.293752927965e-008 
1.012200000000e+004 1.935514117866e-008 
1.022200000000e+004 1.632749456421e-008 
1.032200000000e+004 1.376957505444e-008 
1.042200000000e+004 1.160923023943e-008 
1.052200000000e+004 9.785255091067e-009 
1.062200000000e+004 8.245756452947e-009 
1.072200000000e+004 6.946757055221e-009 
1.082200000000e+004 5.851004891953e-009 
1.092200000000e+004 4.926958494647e-009 
1.102200000000e+004 4.147922719045e-009 
1.112200000000e+004 3.491313212590e-009 
1.122200000000e+004 2.938030800330e-009 
1.132200000000e+004 2.471929687743e-009 
1.142200000000e+004 2.079365675503e-009 
1.152200000000e+004 1.748812561890e-009 
1.162200000000e+004 1.470536616464e-009 
1.172200000000e+004 1.236320474442e-009 
1.182200000000e+004 1.039229064770e-009 
1.192200000000e+004 8.734112661237e-010 
1.202200000000e+004 7.339319136681e-010 
1.212200000000e+004 6.166295741767e-010 
1.222200000000e+004 5.179961872852e-010 
1.232200000000e+004 4.350752520623e-010 
1.242200000000e+004 3.653757346708e-010 
1.252200000000e+004 3.067992967085e-010 
1.262200000000e+004 2.575788052143e-010 
1.272200000000e+004 2.162263932909e-010 
1.282200000000e+004 1.814896025274e-010 
1.292200000000e+004 1.523143615307e-010 
1.302200000000e+004 1.278137447282e-010 
1.312200000000e+004 1.072416167364e-010 
1.322200000000e+004 8.997040471005e-011 
1.332200000000e+004 7.547235731516e-011 
1.342200000000e+004 6.330374764560e-011 
1.352200000000e+004 5.309156107756e-011 
1.362200000000e+004 4.452227997517e-011 
1.372200000000e+004 3.733243724554e-011 
1.382200000000e+004 3.130066162159e-011 
1.392200000000e+004 2.624098061836e-011 
1.402200000000e+004 2.199718355617e-011 
1.412200000000e+004 1.843807784635e-011 
1.422200000000e+004 1.545349781041e-011 
1.432200000000e+004 1.295094732091e-011 
1.442200000000e+004 1.085277613708e-011 
1.452200000000e+004 9.093805553295e-012 
1.462200000000e+004 7.619332212122e-012 
1.472200000000e+004 6.383450149172e-012 
1.482200000000e+004 5.347640570996e-012 
1.492200000000e+004 4.479586842764e-012 
1.502200000000e+004 3.752178879668e-012 
1.512200000000e+004 3.142676794192e-012 
1.522200000000e+004 2.632008431711e-012 
1.532200000000e+004 2.204179445698e-012 
1.542200000000e+004 1.845777952371e-012 
1.552200000000e+004 1.545558658042e-012 
1.562200000000e+004 1.294093754639e-012 
1.572200000000e+004 1.083479902070e-012 
1.582200000000e+004 9.070923156870e-013 
1.592200000000e+004 7.593784131961e-013 
1.602200000000e+004 6.356846759196e-013 
1.612200000000e+004 5.321113957448e-013 
1.622200000000e+004 4.453908296717e-013 
1.632200000000e+004 3.727850008990e-013 
1.642200000000e+004 3.119999875969e-013 
1.652200000000e+004 2.611140466490e-013 
1.662200000000e+004 2.185173453649e-013 
1.672200000000e+004 1.828614311469e-013 
1.682200000000e+004 1.530168697501e-013 
1.692200000000e+004 1.280377348296e-013 
1.702200000000e+004 1.071318433709e-013 
1.712200000000e+004 8.963580933396e-014 
1.722200000000e+004 7.499413739231e-014 
1.732200000000e+004 6.274170385160e-014 
1.742200000000e+004 5.248907713821e-014 
1.752200000000e+004 4.391021855902e-014 
1.762200000000e+004 3.673217814696e-014 
1.772200000000e+004 3.072646259774e-014 
1.782200000000e+004 2.570180447624e-014 
1.792200000000e+004 2.149810564082e-014 
1.802200000000e+004 1.798136454520e-014 
1.812200000000e+004 1.503942786875e-014 
1.822200000000e+004 1.257843274862e-014 
1.832200000000e+004 1.051982753178e-014 
1.842200000000e+004 8.797877138897e-015 
1.852200000000e+004 7.357574323207e-015 
1.862200000000e+004 6.152890890062e-015 
1.872200000000e+004 5.145313625778e-015 
1.882200000000e+004 4.302618653949e-015 
1.892200000000e+004 3.597845440028e-015 
1.902200000000e+004 3.008437973379e-015 
1.912200000000e+004 2.515525919897e-015 
1.922200000000e+004 2.103322963607e-015 
1.932200000000e+004 1.758623256538e-015 
1.942200000000e+004 1.470379999036e-015 
1.952200000000e+004 1.229352771167e-015 
1.962200000000e+004 1.027812411954e-015 
1.972200000000e+004 8.592940662698e-016 
1.982200000000e+004 7.183905484001e-016 
1.992200000000e+004 6.005794447073e-016 
2.002200000000e+004 5.020784548340e-016 
2.012200000000e+004 4.197243628282e-016 
2.022200000000e+004 3.508717825120e-016 
2.032200000000e+004 2.933084496200e-016 
2.042200000000e+004 2.451843590289e-016 
2.052200000000e+004 2.049524865129e-016 
2.062200000000e+004 1.713192026160e-016 
2.072200000000e+004 1.432027957258e-016 
2.082200000000e+004 1.196987792084e-016 
2.092200000000e+004 1.000508737533e-016 
2.102200000000e+004 8.362673760371e-017 
2.112200000000e+004 6.989766825814e-017 
2.122200000000e+004 5.842162633197e-017 
2.132200000000e+004 4.882903826225e-017 
2.142200000000e+004 4.081092333889e-017 
2.152200000000e+004 3.410896478414e-017 
2.162200000000e+004 2.850720680132e-017 
2.172200000000e+004 2.382511150868e-017 
2.182200000000e+004 1.991175321364e-017 
2.192200000000e+004 1.664096377524e-017 
2.202200000000e+004 1.390727343312e-017 
2.212200000000e+004 1.162251676843e-017 
2.222200000000e+004 9.712994927636e-018 
2.232200000000e+004 8.117102958681e-018 
2.242200000000e+004 6.783346107506e-018 
2.252200000000e+004 5.668681311504e-018 
2.262200000000e+004 4.737130644589e-018 
2.272200000000e+004 3.958622109862e-018 
2.282200000000e+004 3.308020556008e-018 
2.292200000000e+004 2.764317521760e-018 
2.302200000000e+004 2.309953982807e-018 
2.312200000000e+004 1.930254187527e-018 
2.322200000000e+004 1.612952389685e-018 
2.332200000000e+004 1.347797222617e-018 
2.342200000000e+004 1.126221002013e-018 
2.352200000000e+004 9.410632893423e-019 
2.362200000000e+004 7.863398320343e-019 
2.372200000000e+004 6.570494211960e-019 
2.382200000000e+004 5.490124597293e-019 
2.392200000000e+004 4.587360254519e-019 
2.402200000000e+004 3.833010925349e-019 
2.412200000000e+004 3.202682647079e-019 
2.422200000000e+004 2.675989915255e-019 
2.432200000000e+004 2.235897176374e-019 
2.442200000000e+004 1.868168499018e-019 
2.452200000000e+004 1.560907594303e-019 
2.462200000000e+004 1.304173416612e-019 
2.472200000000e+004 1.089658875585e-019 
2.482200000000e+004 9.104223509350e-020 
2.492200000000e+004 7.606632900873e-020 
2.502200000000e+004 6.355346933796e-020 
2.512200000000e+004 5.309863878819e-020 
2.522200000000e+004 4.436340702034e-020 
2.532200000000e+004 3.706498519330e-020 
2.542200000000e+004 3.096708054088e-020 
2.552200000000e+004 2.587225260028e-020 
2.562200000000e+004 2.161552677643e-020 
2.572200000000e+004 1.805905650887e-020 
2.582200000000e+004 1.508766370409e-020 
2.592200000000e+004 1.260511133435e-020 
2.602200000000e+004 1.053098950659e-020 
2.612200000000e+004 8.798112717698e-021 
2.622200000000e+004 7.350345614989e-021 
2.632200000000e+004 6.140785629559e-021 
2.642200000000e+004 5.130244918844e-021 
2.652200000000e+004 4.285981429604e-021 
2.662200000000e+004 3.580639027811e-021 
2.672200000000e+004 2.991361517787e-021 
2.682200000000e+004 2.499052695781e-021 
2.692200000000e+004 2.087757766377e-021 
2.702200000000e+004 1.744146770683e-021 
2.712200000000e+004 1.457082707780e-021 
2.722200000000e+004 1.217260918281e-021 
2.732200000000e+004 1.016907564757e-021 
2.742200000000e+004 8.495278965412e-022 
2.752200000000e+004 7.096957453159e-022 
2.762200000000e+004 5.928778030426e-022 
2.772200000000e+004 4.952866617351e-022 
2.782200000000e+004 4.137581564808e-022 
2.792200000000e+004 3.456487688965e-022 
2.802200000000e+004 2.887500137920e-022 
2.812200000000e+004 2.412168147082e-022 
2.822200000000e+004 2.015077490446e-022 
2.832200000000e+004 1.683350460830e-022 
2.842200000000e+004 1.406228820564e-022 
2.852200000000e+004 1.174724732197e-022 
2.862200000000e+004 9.813296984232e-023 
2.872200000000e+004 8.197708724533e-023 
2.882200000000e+004 6.848079353155e-023 
2.892200000000e+004 5.720629724458e-023 
2.902200000000e+004 4.778787270886e-023 
2.912200000000e+004 3.991998328144e-023 
2.922200000000e+004 3.334739027854e-023 
2.932200000000e+004 2.785686137966e-023 
2.942200000000e+004 2.327026903465e-023 
2.952200000000e+004 1.943880165837e-023 
2.962200000000e+004 1.623814827688e-023 
2.972200000000e+004 1.356445692939e-023 
2.982200000000e+004 1.133097515062e-023 
2.992200000000e+004 9.465228117601e-024 
3.002200000000e+004 7.906675004255e-024 
3.012200000000e+004 6.604738657835e-024 
3.022200000000e+004 5.517170782166e-024 
3.032200000000e+004 4.608676101103e-024 
3.042200000000e+004 3.849772098137e-024 
3.052200000000e+004 3.215828228255e-024 
3.062200000000e+004 2.686270690691e-024 
3.072200000000e+004 2.243911423050e-024 
3.082200000000e+004 1.874393572275e-024 
3.092200000000e+004 1.565722821612e-024 
3.102200000000e+004 1.307880760483e-024 
3.112200000000e+004 1.092497493534e-024 
3.122200000000e+004 9.125821170381e-025 
3.132200000000e+004 7.622939875383e-025 
3.142200000000e+004 6.367548691154e-025 
3.152200000000e+004 5.318891036259e-025 
3.162200000000e+004 4.442927087386e-025 
3.172200000000e+004 3.711216724241e-025 
3.182200000000e+004 3.100007583571e-025 
3.192200000000e+004 2.589454168285e-025 
3.202200000000e+004 2.162982705818e-025 
3.212200000000e+004 1.806745112989e-025 
3.222200000000e+004 1.509176782170e-025 
3.232200000000e+004 1.260614651814e-025 
3.242200000000e+004 1.052989431651e-025 
3.252200000000e+004 8.795583645761e-026 
3.262200000000e+004 7.346911111610e-026 
3.272200000000e+004 6.136826859617e-026 
3.282200000000e+004 5.126045733361e-026 
3.292200000000e+004 4.281737242664e-026 
3.302200000000e+004 3.576490892133e-026 
3.312200000000e+004 2.987398261382e-026 
3.322200000000e+004 2.495334434235e-026 
3.332200000000e+004 2.084314434033e-026 
3.342200000000e+004 1.740994563061e-026 
3.352200000000e+004 1.454220879499e-026 
3.362200000000e+004 1.214683451265e-026 
3.372200000000e+004 1.014599319313e-026 
3.382200000000e+004 8.474730207716e-027 
3.392200000000e+004 7.078737827321e-027 
3.402200000000e+004 5.912698491537e-027 
3.412200000000e+004 4.938717396964e-027 
3.422200000000e+004 4.125177937558e-027 
3.432200000000e+004 3.445637799290e-027 
3.442200000000e+004 2.878039515046e-027 
3.452200000000e+004 2.403932005146e-027 
3.462200000000e+004 2.007927098501e-027 
3.472200000000e+004 1.677149788349e-027 
3.482200000000e+004 1.400864914416e-027 
3.492200000000e+004 1.170088317638e-027 
3.502200000000e+004 9.773310762792e-028 
3.512200000000e+004 8.163239816537e-028 
3.522200000000e+004 6.818428526312e-028 
3.532200000000e+004 5.695129263582e-028 
3.542200000000e+004 4.756899866232e-028 
3.552200000000e+004 3.973211929843e-028 
3.562200000000e+004 3.318645447462e-028 
3.572200000000e+004 2.771896330611e-028 
3.582200000000e+004 2.315233658716e-028 
3.592200000000e+004 1.933790111399e-028 
3.602200000000e+004 1.615198548769e-028 
3.612200000000e+004 1.349083324681e-028 
3.622200000000e+004 1.126818871219e-028 
3.632200000000e+004 9.411639584218e-029 
3.642200000000e+004 7.861029107933e-029 
3.652200000000e+004 6.565818299446e-029 
3.662200000000e+004 5.484054742935e-029 
3.672200000000e+004 4.580463998719e-029 
3.682200000000e+004 3.825790887786e-029 
3.692200000000e+004 3.195413830237e-029 
3.702200000000e+004 2.668933360046e-029 
3.712200000000e+004 2.229162603091e-029 
3.722200000000e+004 1.861878211326e-029 
3.732200000000e+004 1.555082254922e-029 
3.742200000000e+004 1.298858464237e-029 
3.752200000000e+004 1.084830626327e-029 
3.762200000000e+004 9.060859344231e-030 
3.772200000000e+004 7.567761525281e-030 
3.782200000000e+004 6.320827362841e-030 
3.792200000000e+004 5.279220971511e-030 
3.802200000000e+004 4.409358678712e-030 
3.812200000000e+004 3.682723524967e-030 
3.822200000000e+004 3.075911697746e-030 
3.832200000000e+004 2.569006687878e-030 
3.842200000000e+004 2.145701046780e-030 
3.852200000000e+004 1.792083190300e-030 
3.862200000000e+004 1.496791995154e-030 
3.872200000000e+004 1.250108989186e-030 
3.882200000000e+004 1.044120337122e-030 
3.892200000000e+004 8.720358465667e-031 
3.902200000000e+004 7.283439147620e-031 
3.912200000000e+004 6.082995735395e-031 
3.922200000000e+004 5.080649651423e-031 
3.932200000000e+004 4.243237760819e-031 
3.942200000000e+004 3.544041366145e-031 
3.952200000000e+004 2.959878401633e-031 
3.962200000000e+004 2.472151423811e-031 
3.972200000000e+004 2.064652592962e-031 
3.982200000000e+004 1.724439946779e-031 
3.992200000000e+004 1.440179695104e-031 
4.002200000000e+004 1.202867432530e-031 
4.012200000000e+004 1.004576307407e-031 
4.022200000000e+004 8.390427842001e-032 
4.032200000000e+004 7.007219150703e-032 
4.042200000000e+004 5.852575901169e-032 
4.052200000000e+004 4.887704756923e-032 
4.062200000000e+004 4.082315492691e-032 
4.072200000000e+004 3.409264542572e-032 
4.082200000000e+004 2.847492488655e-032 
4.092200000000e+004 2.378005725156e-032 
4.102200000000e+004 1.986163803371e-032 
4.112200000000e+004 1.658675911737e-032 
4.122200000000e+004 1.385364087783e-032 
4.132200000000e+004 1.156928785643e-032 
4.142200000000e+004 9.662935859592e-033 
4.152200000000e+004 8.069528798147e-033 
4.162200000000e+004 6.739853944611e-033 
4.172200000000e+004 5.628416287088e-033 
4.182200000000e+004 4.700975432594e-033 
4.192200000000e+004 3.925733180299e-033 
4.202200000000e+004 3.278849288149e-033 
4.212200000000e+004 2.738116660485e-033 
4.222200000000e+004 2.286918814868e-033 
4.232200000000e+004 1.909764506053e-033 
4.242200000000e+004 1.595055022642e-033 
4.252200000000e+004 1.332000914178e-033 
4.262200000000e+004 1.112489671209e-033 
4.272200000000e+004 9.290225264259e-034 
4.282200000000e+004 7.759101287634e-034 
4.292200000000e+004 6.479555570127e-034 
4.302200000000e+004 5.411549385872e-034 
4.312200000000e+004 4.519201958925e-034 
4.322200000000e+004 3.774211057540e-034 
4.332200000000e+004 3.151927551263e-034 
4.342200000000e+004 2.632234504624e-034 
4.352200000000e+004 2.198311032449e-034 
4.362200000000e+004 1.835761193409e-034 
4.372200000000e+004 1.533208101265e-034 
4.382200000000e+004 1.280266079760e-034 
4.392200000000e+004 1.069332813839e-034 
4.402200000000e+004 8.928444552355e-035 
4.412200000000e+004 7.458052914811e-035 
4.422200000000e+004 6.226467776334e-035 
4.432200000000e+004 5.201636344200e-035 
4.442200000000e+004 4.342068453018e-035 
4.452200000000e+004 3.627921898942e-035 
4.462200000000e+004 3.027881502546e-035 
4.472200000000e+004 2.530352795095e-035 
4.482200000000e+004 2.111379543372e-035 
4.492200000000e+004 1.764865535133e-035 
4.502200000000e+004 1.472232704050e-035 
4.512200000000e+004 1.230983532251e-035 
4.522200000000e+004 1.026517316602e-035 
4.532200000000e+004 8.586302925509e-036 
4.542200000000e+004 7.157017245594e-036 
4.552200000000e+004 5.989319573090e-036 
4.562200000000e+004 4.989641212504e-036 
4.572200000000e+004 4.178023815072e-036 
4.582200000000e+004 3.478344512393e-036 
4.592200000000e+004 2.914689753620e-036 
4.602200000000e+004 2.424573135982e-036 
4.612200000000e+004 2.033521839679e-036 
4.622200000000e+004 1.689854854320e-036 
4.632200000000e+004 1.418890869725e-036 
4.642200000000e+004 1.177620226543e-036 
4.652200000000e+004 9.901548626547e-037 
4.662200000000e+004 8.205237007756e-037 
4.672200000000e+004 6.910726050169e-037 
4.682200000000e+004 5.716008272919e-037 
4.692200000000e+004 4.824203490035e-037 
4.702200000000e+004 3.981009937501e-037 
4.712200000000e+004 3.368425269076e-037 
4.722200000000e+004 2.771862091878e-037 
4.732200000000e+004 2.352605485613e-037 
4.742200000000e+004 1.929313518306e-037 
4.752200000000e+004 1.643682535304e-037 
4.762200000000e+004 1.342321093344e-037 
4.772200000000e+004 1.148852209928e-037 
4.782200000000e+004 9.334597240319e-038 
4.792200000000e+004 8.033862241382e-038 
4.802200000000e+004 6.487473439854e-038 
4.812200000000e+004 5.621368587676e-038 
4.822200000000e+004 4.505490613190e-038 
4.832200000000e+004 3.936123197790e-038 
4.842200000000e+004 3.126287275801e-038 
4.852200000000e+004 2.758449127886e-038 
4.862200000000e+004 2.166981255845e-038 
4.872200000000e+004 1.935095192661e-038 
4.882200000000e+004 1.500105811413e-038 
4.892200000000e+004 1.359140203340e-038 
4.902200000000e+004 1.036829390083e-038 
4.912200000000e+004 9.559780683251e-039 
4.922200000000e+004 7.152547702925e-039 
4.932200000000e+004 6.735435909809e-039 
4.942200000000e+004 4.922603595145e-039 
4.952200000000e+004 4.754956715329e-039 
4.962200000000e+004 3.378115846761e-039 
4.972200000000e+004 3.364629608875e-039 
4.982200000000e+004 2.309947458410e-039 
4.992200000000e+004 2.387278462885e-039 
5.002200000000e+004 1.572519534711e-039 
