TITLE = "Time curves in points"
VARIABLES = "TIME " ConsTracer 
ZONE T="POINT=POINT555"
0.000000000000e+000 0.000000000000e+000 
2.000000000000e-001 0.000000000000e+000 
4.000000000000e-001 2.730263727317e-039 
6.000000000000e-001 1.461596622808e-039 
8.000000000000e-001 3.357054343793e-039 
1.000000000000e+000 5.177690211065e-039 
1.200000000000e+000 4.065350016621e-039 
1.400000000000e+000 1.289370675798e-039 
1.600000000000e+000 5.232319962236e-039 
1.800000000000e+000 8.837333754751e-039 
2.000000000000e+000 1.196259883883e-038 
4.000000000000e+000 1.515167734390e-038 
6.000000000000e+000 1.875659761738e-038 
8.000000000000e+000 2.254815373796e-038 
1.000000000000e+001 2.652651841806e-038 
1.200000000000e+001 3.110940621396e-038 
1.400000000000e+001 3.639730098259e-038 
1.600000000000e+001 4.220148765159e-038 
1.800000000000e+001 4.864463666890e-038 
2.000000000000e+001 5.560732012842e-038 
2.200000000000e+001 6.289242189083e-038 
4.200000000000e+001 3.488511374344e-033 
6.200000000000e+001 -1.988875522137e-024 
8.200000000000e+001 -1.577605563753e-022 
1.020000000000e+002 -3.829601945229e-021 
1.220000000000e+002 -5.301772244112e-020 
1.420000000000e+002 -5.295635344081e-019 
1.620000000000e+002 -4.062101791932e-018 
1.820000000000e+002 -2.546854240379e-017 
2.020000000000e+002 -1.340567585246e-016 
2.220000000000e+002 -6.051841321976e-016 
2.420000000000e+002 -2.394719017434e-015 
2.620000000000e+002 -8.409191656218e-015 
2.820000000000e+002 -2.636547692461e-014 
3.020000000000e+002 -7.439776110452e-014 
3.220000000000e+002 -1.902282862473e-013 
3.420000000000e+002 -4.434045921034e-013 
3.620000000000e+002 -9.473538529944e-013 
3.820000000000e+002 -1.864504044424e-012 
4.020000000000e+002 -3.395613992564e-012 
4.220000000000e+002 -5.745637996487e-012 
4.420000000000e+002 -9.064690009751e-012 
4.620000000000e+002 -1.337089150059e-011 
4.820000000000e+002 -1.847062215672e-011 
5.020000000000e+002 -2.389575511620e-011 
5.220000000000e+002 -2.888142620648e-011 
5.420000000000e+002 -3.240679559301e-011 
5.620000000000e+002 -3.330842842283e-011 
5.820000000000e+002 -3.049158565703e-011 
6.020000000000e+002 -2.309425623260e-011 
6.220000000000e+002 -1.065569220727e-011 
6.420000000000e+002 6.647875143111e-012 
6.620000000000e+002 2.785933581805e-011 
6.820000000000e+002 5.175895904416e-011 
7.020000000000e+002 7.728689742441e-011 
7.220000000000e+002 1.024444050254e-010 
7.420000000000e+002 1.249784376560e-010 
7.620000000000e+002 1.431145920400e-010 
7.820000000000e+002 1.557517436405e-010 
8.020000000000e+002 1.628667786199e-010 
8.220000000000e+002 1.661718137987e-010 
8.420000000000e+002 1.694790503165e-010 
8.620000000000e+002 1.794805569622e-010 
8.820000000000e+002 2.072471919417e-010 
9.020000000000e+002 2.695070905786e-010 
9.220000000000e+002 3.900155886491e-010 
9.420000000000e+002 6.017285530877e-010 
9.620000000000e+002 9.496669483191e-010 
9.820000000000e+002 1.494014171920e-009 
1.002000000000e+003 2.314111525067e-009 
1.022000000000e+003 3.514363201122e-009 
1.042000000000e+003 5.227956471765e-009 
1.062000000000e+003 7.622891022351e-009 
1.082000000000e+003 1.090804800527e-008 
1.102000000000e+003 1.533892259387e-008 
1.122000000000e+003 2.122434017908e-008 
1.142000000000e+003 2.893226576158e-008 
1.162000000000e+003 3.889615550670e-008 
1.182000000000e+003 5.162022737705e-008 
1.202000000000e+003 6.768464908880e-008 
1.222000000000e+003 8.774960829385e-008 
1.242000000000e+003 1.125587071216e-007 
1.262000000000e+003 1.429412055023e-007 
1.282000000000e+003 1.798130673076e-007 
1.302000000000e+003 2.241767866100e-007 
1.322000000000e+003 2.771200354922e-007 
1.342000000000e+003 3.398125561580e-007 
1.362000000000e+003 4.135023376967e-007 
1.382000000000e+003 4.995098266216e-007 
1.402000000000e+003 5.992214105331e-007 
1.422000000000e+003 7.140813220504e-007 
1.442000000000e+003 8.455828290643e-007 
1.462000000000e+003 9.952581580502e-007 
1.482000000000e+003 1.164667854040e-006 
1.502000000000e+003 1.355389328781e-006 
1.522000000000e+003 1.569005000330e-006 
1.542000000000e+003 1.807090039494e-006 
1.562000000000e+003 2.071199959475e-006 
1.582000000000e+003 2.362858199284e-006 
1.602000000000e+003 2.683543821017e-006 
1.622000000000e+003 3.034679518905e-006 
1.642000000000e+003 3.417620025936e-006 
1.662000000000e+003 3.833641089828e-006 
1.682000000000e+003 4.283929092846e-006 
1.702000000000e+003 4.769571441288e-006 
1.722000000000e+003 5.291547791707e-006 
1.742000000000e+003 5.850722192683e-006 
1.762000000000e+003 6.447836191842e-006 
1.782000000000e+003 7.083502949567e-006 
1.802000000000e+003 7.758202385386e-006 
1.822000000000e+003 8.472277368460e-006 
1.842000000000e+003 9.225930952896e-006 
1.862000000000e+003 1.001922464524e-005 
1.882000000000e+003 1.085207768228e-005 
1.902000000000e+003 1.172426728685e-005 
1.922000000000e+003 1.263542986148e-005 
1.942000000000e+003 1.358506307245e-005 
1.962000000000e+003 1.457252877052e-005 
1.982000000000e+003 1.559705669004e-005 
2.002000000000e+003 1.665774886386e-005 
2.022000000000e+003 1.775358468902e-005 
2.122000000000e+003 2.403374462051e-005 
2.222000000000e+003 3.099753494152e-005 
2.322000000000e+003 3.841110027108e-005 
2.422000000000e+003 4.600108855625e-005 
2.522000000000e+003 5.349261227137e-005 
2.622000000000e+003 6.063306281554e-005 
2.722000000000e+003 6.720818305886e-005 
2.822000000000e+003 7.305118024558e-005 
2.922000000000e+003 7.804582918455e-005 
3.022000000000e+003 8.212487198768e-005 
3.122000000000e+003 8.526513631154e-005 
3.222000000000e+003 8.748069813460e-005 
3.322000000000e+003 8.881519436963e-005 
3.422000000000e+003 8.933412167868e-005 
3.522000000000e+003 8.911769357269e-005 
3.622000000000e+003 8.825459840668e-005 
3.722000000000e+003 8.683681909071e-005 
3.822000000000e+003 8.495554266981e-005 
3.922000000000e+003 8.269809928952e-005 
4.022000000000e+003 8.014581739076e-005 
4.122000000000e+003 7.737265656163e-005 
4.222000000000e+003 7.444447330770e-005 
4.322000000000e+003 7.141878141053e-005 
4.422000000000e+003 6.834488234822e-005 
4.522000000000e+003 6.526425866429e-005 
4.622000000000e+003 6.221114158818e-005 
4.722000000000e+003 5.921318195896e-005 
4.822000000000e+003 5.629216960071e-005 
4.922000000000e+003 5.346476026828e-005 
5.022000000000e+003 5.074318097695e-005 
5.122000000000e+003 4.813589402114e-005 
5.222000000000e+003 4.564820746756e-005 
5.322000000000e+003 4.328282563524e-005 
5.422000000000e+003 4.104033732043e-005 
5.522000000000e+003 3.891964255803e-005 
5.622000000000e+003 3.691832077680e-005 
5.722000000000e+003 3.503294451725e-005 
5.822000000000e+003 3.325934362260e-005 
5.922000000000e+003 3.159282513113e-005 
6.022000000000e+003 3.002835411805e-005 
6.122000000000e+003 2.856070054621e-005 
6.222000000000e+003 2.718455686676e-005 
6.322000000000e+003 2.589463071240e-005 
6.422000000000e+003 2.468571659267e-005 
6.522000000000e+003 2.355275005794e-005 
6.622000000000e+003 2.249084736786e-005 
6.722000000000e+003 2.149533329380e-005 
6.822000000000e+003 2.056175930985e-005 
6.922000000000e+003 1.968591408815e-005 
7.022000000000e+003 1.886382791269e-005 
7.122000000000e+003 1.809177235999e-005 
7.222000000000e+003 1.736625636412e-005 
7.322000000000e+003 1.668401958474e-005 
7.422000000000e+003 1.604202382648e-005 
7.522000000000e+003 1.543744311417e-005 
7.622000000000e+003 1.486765290719e-005 
7.722000000000e+003 1.433021883498e-005 
7.822000000000e+003 1.382288525187e-005 
7.922000000000e+003 1.334356384014e-005 
8.022000000000e+003 1.289032243395e-005 
8.122000000000e+003 1.246137419074e-005 
8.222000000000e+003 1.205506719969e-005 
8.322000000000e+003 1.166987458771e-005 
8.422000000000e+003 1.130438515964e-005 
8.522000000000e+003 1.095729459179e-005 
8.622000000000e+003 1.062739718321e-005 
8.722000000000e+003 1.031357815911e-005 
8.822000000000e+003 1.001480651271e-005 
8.922000000000e+003 9.730128366047e-006 
9.022000000000e+003 9.458660826540e-006 
9.122000000000e+003 9.199586313653e-006 
9.222000000000e+003 8.952147328344e-006 
9.322000000000e+003 8.715641637595e-006 
9.422000000000e+003 8.489417846292e-006 
9.522000000000e+003 8.272871329235e-006 
9.622000000000e+003 8.065440496959e-006 
9.722000000000e+003 7.866603370083e-006 
9.822000000000e+003 7.675874438247e-006 
9.922000000000e+003 7.492801780989e-006 
1.002200000000e+004 7.316964429343e-006 
1.012200000000e+004 7.147969948358e-006 
1.022200000000e+004 6.985452222112e-006 
1.032200000000e+004 6.829069424170e-006 
1.042200000000e+004 6.678502157730e-006 
1.052200000000e+004 6.533451750927e-006 
1.062200000000e+004 6.393638693971e-006 
1.072200000000e+004 6.258801205849e-006 
1.082200000000e+004 6.128693919391e-006 
1.092200000000e+004 6.003086674415e-006 
1.102200000000e+004 5.881763409578e-006 
1.112200000000e+004 5.764521144361e-006 
1.122200000000e+004 5.651169043376e-006 
1.132200000000e+004 5.541527555848e-006 
1.142200000000e+004 5.435427623805e-006 
1.152200000000e+004 5.332709953017e-006 
1.162200000000e+004 5.233224341338e-006 
1.172200000000e+004 5.136829059496e-006 
1.182200000000e+004 5.043390279899e-006 
1.192200000000e+004 4.952781549360e-006 
1.202200000000e+004 4.864883302047e-006 
1.212200000000e+004 4.779582409280e-006 
1.222200000000e+004 4.696771763098e-006 
1.232200000000e+004 4.616349890800e-006 
1.242200000000e+004 4.538220597900e-006 
1.252200000000e+004 4.462292637175e-006 
1.262200000000e+004 4.388479401681e-006 
1.272200000000e+004 4.316698639803e-006 
1.282200000000e+004 4.246872190568e-006 
1.292200000000e+004 4.178925737616e-006 
1.302200000000e+004 4.112788580341e-006 
1.312200000000e+004 4.048393420872e-006 
1.322200000000e+004 3.985676165648e-006 
1.332200000000e+004 3.924575740473e-006 
1.342200000000e+004 3.865033918003e-006 
1.352200000000e+004 3.806995156737e-006 
1.362200000000e+004 3.750406450634e-006 
1.372200000000e+004 3.695217188565e-006 
1.382200000000e+004 3.641379022875e-006 
1.392200000000e+004 3.588845746379e-006 
1.402200000000e+004 3.537573177184e-006 
1.412200000000e+004 3.487519050766e-006 
1.422200000000e+004 3.438642918783e-006 
1.432200000000e+004 3.390906054150e-006 
1.442200000000e+004 3.344271361929e-006 
1.452200000000e+004 3.298703295634e-006 
1.462200000000e+004 3.254167778563e-006 
1.472200000000e+004 3.210632129837e-006 
1.482200000000e+004 3.168064994791e-006 
1.492200000000e+004 3.126436279459e-006 
1.502200000000e+004 3.085717088847e-006 
1.512200000000e+004 3.045879668772e-006 
1.522200000000e+004 3.006897351003e-006 
1.532200000000e+004 2.968744501512e-006 
1.542200000000e+004 2.931396471628e-006 
1.552200000000e+004 2.894829551891e-006 
1.562200000000e+004 2.859020928463e-006 
1.572200000000e+004 2.823948641909e-006 
1.582200000000e+004 2.789591548214e-006 
1.592200000000e+004 2.755929281894e-006 
1.602200000000e+004 2.722942221069e-006 
1.612200000000e+004 2.690611454379e-006 
1.622200000000e+004 2.658918749637e-006 
1.632200000000e+004 2.627846524109e-006 
1.642200000000e+004 2.597377816318e-006 
1.652200000000e+004 2.567496259305e-006 
1.662200000000e+004 2.538186055225e-006 
1.672200000000e+004 2.509431951242e-006 
1.682200000000e+004 2.481219216608e-006 
1.692200000000e+004 2.453533620889e-006 
1.702200000000e+004 2.426361413261e-006 
1.712200000000e+004 2.399689302803e-006 
1.722200000000e+004 2.373504439759e-006 
1.732200000000e+004 2.347794397689e-006 
1.742200000000e+004 2.322547156476e-006 
1.752200000000e+004 2.297751086133e-006 
1.762200000000e+004 2.273394931373e-006 
1.772200000000e+004 2.249467796897e-006 
1.782200000000e+004 2.225959133360e-006 
1.792200000000e+004 2.202858723988e-006 
1.802200000000e+004 2.180156671796e-006 
1.812200000000e+004 2.157843387395e-006 
1.822200000000e+004 2.135909577335e-006 
1.832200000000e+004 2.114346232983e-006 
1.842200000000e+004 2.093144619877e-006 
1.852200000000e+004 2.072296267563e-006 
1.862200000000e+004 2.051792959866e-006 
1.872200000000e+004 2.031626725592e-006 
1.882200000000e+004 2.011789829623e-006 
1.892200000000e+004 1.992274764395e-006 
1.902200000000e+004 1.973074241745e-006 
1.912200000000e+004 1.954181185093e-006 
1.922200000000e+004 1.935588721957e-006 
1.932200000000e+004 1.917290176781e-006 
1.942200000000e+004 1.899279064058e-006 
1.952200000000e+004 1.881549081735e-006 
1.962200000000e+004 1.864094104890e-006 
1.972200000000e+004 1.846908179665e-006 
1.982200000000e+004 1.829985517444e-006 
1.992200000000e+004 1.813320489262e-006 
2.002200000000e+004 1.796907620442e-006 
2.012200000000e+004 1.780741585439e-006 
2.022200000000e+004 1.764817202891e-006 
2.032200000000e+004 1.749129430862e-006 
2.042200000000e+004 1.733673362268e-006 
2.052200000000e+004 1.718444220484e-006 
2.062200000000e+004 1.703437355113e-006 
2.072200000000e+004 1.688648237929e-006 
2.082200000000e+004 1.674072458956e-006 
2.092200000000e+004 1.659705722713e-006 
2.102200000000e+004 1.645543844587e-006 
2.112200000000e+004 1.631582747346e-006 
2.122200000000e+004 1.617818457783e-006 
2.132200000000e+004 1.604247103480e-006 
2.142200000000e+004 1.590864909693e-006 
2.152200000000e+004 1.577668196350e-006 
2.162200000000e+004 1.564653375156e-006 
2.172200000000e+004 1.551816946806e-006 
2.182200000000e+004 1.539155498294e-006 
2.192200000000e+004 1.526665700317e-006 
2.202200000000e+004 1.514344304781e-006 
2.212200000000e+004 1.502188142377e-006 
2.222200000000e+004 1.490194120259e-006 
2.232200000000e+004 1.478359219796e-006 
2.242200000000e+004 1.466680494397e-006 
2.252200000000e+004 1.455155067419e-006 
2.262200000000e+004 1.443780130145e-006 
2.272200000000e+004 1.432552939826e-006 
2.282200000000e+004 1.421470817793e-006 
2.292200000000e+004 1.410531147635e-006 
2.302200000000e+004 1.399731373435e-006 
2.312200000000e+004 1.389068998064e-006 
2.322200000000e+004 1.378541581534e-006 
2.332200000000e+004 1.368146739403e-006 
2.342200000000e+004 1.357882141238e-006 
2.352200000000e+004 1.347745509118e-006 
2.362200000000e+004 1.337734616200e-006 
2.372200000000e+004 1.327847285315e-006 
2.382200000000e+004 1.318081387622e-006 
2.392200000000e+004 1.308434841301e-006 
2.402200000000e+004 1.298905610284e-006 
2.412200000000e+004 1.289491703035e-006 
2.422200000000e+004 1.280191171357e-006 
2.432200000000e+004 1.271002109245e-006 
2.442200000000e+004 1.261922651775e-006 
2.452200000000e+004 1.252950974022e-006 
2.462200000000e+004 1.244085290012e-006 
2.472200000000e+004 1.235323851716e-006 
2.482200000000e+004 1.226664948061e-006 
2.492200000000e+004 1.218106903981e-006 
2.502200000000e+004 1.209648079491e-006 
2.512200000000e+004 1.201286868794e-006 
2.522200000000e+004 1.193021699414e-006 
2.532200000000e+004 1.184851031346e-006 
2.542200000000e+004 1.176773356247e-006 
2.552200000000e+004 1.168787196639e-006 
2.562200000000e+004 1.160891105139e-006 
2.572200000000e+004 1.153083663713e-006 
2.582200000000e+004 1.145363482947e-006 
2.592200000000e+004 1.137729201351e-006 
2.602200000000e+004 1.130179484667e-006 
2.612200000000e+004 1.122713025208e-006 
2.622200000000e+004 1.115328541214e-006 
2.632200000000e+004 1.108024776225e-006 
2.642200000000e+004 1.100800498471e-006 
2.652200000000e+004 1.093654500283e-006 
2.662200000000e+004 1.086585597516e-006 
2.672200000000e+004 1.079592628991e-006 
2.682200000000e+004 1.072674455954e-006 
2.692200000000e+004 1.065829961546e-006 
2.702200000000e+004 1.059058050290e-006 
2.712200000000e+004 1.052357647592e-006 
2.722200000000e+004 1.045727699260e-006 
2.732200000000e+004 1.039167171024e-006 
2.742200000000e+004 1.032675048083e-006 
2.752200000000e+004 1.026250334657e-006 
2.762200000000e+004 1.019892053553e-006 
2.772200000000e+004 1.013599245738e-006 
2.782200000000e+004 1.007370969935e-006 
2.792200000000e+004 1.001206302215e-006 
2.802200000000e+004 9.951043356124e-007 
2.812200000000e+004 9.890641797417e-007 
2.822200000000e+004 9.830849604310e-007 
2.832200000000e+004 9.771658193605e-007 
2.842200000000e+004 9.713059137124e-007 
2.852200000000e+004 9.655044158298e-007 
2.862200000000e+004 9.597605128839e-007 
2.872200000000e+004 9.540734065507e-007 
2.882200000000e+004 9.484423126951e-007 
2.892200000000e+004 9.428664610636e-007 
2.902200000000e+004 9.373450949848e-007 
2.912200000000e+004 9.318774710773e-007 
2.922200000000e+004 9.264628589654e-007 
2.932200000000e+004 9.211005410015e-007 
2.942200000000e+004 9.157898119959e-007 
2.952200000000e+004 9.105299789528e-007 
2.962200000000e+004 9.053203608140e-007 
2.972200000000e+004 9.001602882073e-007 
2.982200000000e+004 8.950491032029e-007 
2.992200000000e+004 8.899861590745e-007 
3.002200000000e+004 8.849708200668e-007 
3.012200000000e+004 8.800024611685e-007 
3.022200000000e+004 8.750804678914e-007 
3.032200000000e+004 8.702042360539e-007 
3.042200000000e+004 8.653731715706e-007 
3.052200000000e+004 8.605866902465e-007 
3.062200000000e+004 8.558442175763e-007 
3.072200000000e+004 8.511451885484e-007 
3.082200000000e+004 8.464890474537e-007 
3.092200000000e+004 8.418752476989e-007 
3.102200000000e+004 8.373032516243e-007 
3.112200000000e+004 8.327725303254e-007 
3.122200000000e+004 8.282825634798e-007 
3.132200000000e+004 8.238328391767e-007 
3.142200000000e+004 8.194228537514e-007 
3.152200000000e+004 8.150521116237e-007 
3.162200000000e+004 8.107201251389e-007 
3.172200000000e+004 8.064264144143e-007 
3.182200000000e+004 8.021705071872e-007 
3.192200000000e+004 7.979519386682e-007 
3.202200000000e+004 7.937702513963e-007 
3.212200000000e+004 7.896249950987e-007 
3.222200000000e+004 7.855157265526e-007 
3.232200000000e+004 7.814420094509e-007 
3.242200000000e+004 7.774034142703e-007 
3.252200000000e+004 7.733995181434e-007 
3.262200000000e+004 7.694299047321e-007 
3.272200000000e+004 7.654941641051e-007 
3.282200000000e+004 7.615918926180e-007 
3.292200000000e+004 7.577226927952e-007 
3.302200000000e+004 7.538861732151e-007 
3.312200000000e+004 7.500819483979e-007 
3.322200000000e+004 7.463096386955e-007 
3.332200000000e+004 7.425688701839e-007 
3.342200000000e+004 7.388592745579e-007 
3.352200000000e+004 7.351804890282e-007 
3.362200000000e+004 7.315321562211e-007 
3.372200000000e+004 7.279139240791e-007 
3.382200000000e+004 7.243254457653e-007 
3.392200000000e+004 7.207663795684e-007 
3.402200000000e+004 7.172363888106e-007 
3.412200000000e+004 7.137351417575e-007 
3.422200000000e+004 7.102623115288e-007 
3.432200000000e+004 7.068175760127e-007 
3.442200000000e+004 7.034006177801e-007 
3.452200000000e+004 7.000111240024e-007 
3.462200000000e+004 6.966487863696e-007 
3.472200000000e+004 6.933133010113e-007 
3.482200000000e+004 6.900043684181e-007 
3.492200000000e+004 6.867216933658e-007 
3.502200000000e+004 6.834649848404e-007 
3.512200000000e+004 6.802339559649e-007 
3.522200000000e+004 6.770283239279e-007 
3.532200000000e+004 6.738478099127e-007 
3.542200000000e+004 6.706921390290e-007 
3.552200000000e+004 6.675610402456e-007 
3.562200000000e+004 6.644542463238e-007 
3.572200000000e+004 6.613714937530e-007 
3.582200000000e+004 6.583125226875e-007 
3.592200000000e+004 6.552770768838e-007 
3.602200000000e+004 6.522649036403e-007 
3.612200000000e+004 6.492757537370e-007 
3.622200000000e+004 6.463093813778e-007 
3.632200000000e+004 6.433655441321e-007 
3.642200000000e+004 6.404440028796e-007 
3.652200000000e+004 6.375445217546e-007 
3.662200000000e+004 6.346668680921e-007 
3.672200000000e+004 6.318108123749e-007 
3.682200000000e+004 6.289761281817e-007 
3.692200000000e+004 6.261625921360e-007 
3.702200000000e+004 6.233699838565e-007 
3.712200000000e+004 6.205980859077e-007 
3.722200000000e+004 6.178466837520e-007 
3.732200000000e+004 6.151155657031e-007 
3.742200000000e+004 6.124045228790e-007 
3.752200000000e+004 6.097133491572e-007 
3.762200000000e+004 6.070418411301e-007 
3.772200000000e+004 6.043897980616e-007 
3.782200000000e+004 6.017570218438e-007 
3.792200000000e+004 5.991433169556e-007 
3.802200000000e+004 5.965484904212e-007 
3.812200000000e+004 5.939723517698e-007 
3.822200000000e+004 5.914147129959e-007 
3.832200000000e+004 5.888753885203e-007 
3.842200000000e+004 5.863541951520e-007 
3.852200000000e+004 5.838509520510e-007 
3.862200000000e+004 5.813654806909e-007 
3.872200000000e+004 5.788976048233e-007 
3.882200000000e+004 5.764471504421e-007 
3.892200000000e+004 5.740139457490e-007 
3.902200000000e+004 5.715978211188e-007 
3.912200000000e+004 5.691986090665e-007 
3.922200000000e+004 5.668161442139e-007 
3.932200000000e+004 5.644502632576e-007 
3.942200000000e+004 5.621008049370e-007 
3.952200000000e+004 5.597676100031e-007 
3.962200000000e+004 5.574505211885e-007 
3.972200000000e+004 5.551493831764e-007 
3.982200000000e+004 5.528640425717e-007 
3.992200000000e+004 5.505943478721e-007 
4.002200000000e+004 5.483401494390e-007 
4.012200000000e+004 5.461012994701e-007 
4.022200000000e+004 5.438776519719e-007 
4.032200000000e+004 5.416690627323e-007 
4.042200000000e+004 5.394753892943e-007 
4.052200000000e+004 5.372964909302e-007 
4.062200000000e+004 5.351322286156e-007 
4.072200000000e+004 5.329824650045e-007 
4.082200000000e+004 5.308470644045e-007 
4.092200000000e+004 5.287258927525e-007 
4.102200000000e+004 5.266188175908e-007 
4.112200000000e+004 5.245257080440e-007 
4.122200000000e+004 5.224464347953e-007 
4.132200000000e+004 5.203808700646e-007 
4.142200000000e+004 5.183288875856e-007 
4.152200000000e+004 5.162903625842e-007 
4.162200000000e+004 5.142651717572e-007 
4.172200000000e+004 5.122531932507e-007 
4.182200000000e+004 5.102543066395e-007 
4.192200000000e+004 5.082683929071e-007 
4.202200000000e+004 5.062953344247e-007 
4.212200000000e+004 5.043350149324e-007 
4.222200000000e+004 5.023873195192e-007 
4.232200000000e+004 5.004521346040e-007 
4.242200000000e+004 4.985293479169e-007 
4.252200000000e+004 4.966188484810e-007 
4.262200000000e+004 4.947205265936e-007 
4.272200000000e+004 4.928342738089e-007 
4.282200000000e+004 4.909599829202e-007 
4.292200000000e+004 4.890975479428e-007 
4.302200000000e+004 4.872468640967e-007 
4.312200000000e+004 4.854078277904e-007 
4.322200000000e+004 4.835803366037e-007 
4.332200000000e+004 4.817642892724e-007 
4.342200000000e+004 4.799595856719e-007 
4.352200000000e+004 4.781661268014e-007 
4.362200000000e+004 4.763838147691e-007 
4.372200000000e+004 4.746125527764e-007 
4.382200000000e+004 4.728522451035e-007 
4.392200000000e+004 4.711027970945e-007 
4.402200000000e+004 4.693641151428e-007 
4.412200000000e+004 4.676361066776e-007 
4.422200000000e+004 4.659186801489e-007 
4.432200000000e+004 4.642117450148e-007 
4.442200000000e+004 4.625152117272e-007 
4.452200000000e+004 4.608289917187e-007 
4.462200000000e+004 4.591529973899e-007 
4.472200000000e+004 4.574871420958e-007 
4.482200000000e+004 4.558313401338e-007 
4.492200000000e+004 4.541855067306e-007 
4.502200000000e+004 4.525495580303e-007 
4.512200000000e+004 4.509234110823e-007 
4.522200000000e+004 4.493069838290e-007 
4.532200000000e+004 4.477001950946e-007 
4.542200000000e+004 4.461029645730e-007 
4.552200000000e+004 4.445152128168e-007 
4.562200000000e+004 4.429368612261e-007 
4.572200000000e+004 4.413678320373e-007 
4.582200000000e+004 4.398080483122e-007 
4.592200000000e+004 4.382574339277e-007 
4.602200000000e+004 4.367159135646e-007 
4.612200000000e+004 4.351834126981e-007 
4.622200000000e+004 4.336598575867e-007 
4.632200000000e+004 4.321451752627e-007 
4.642200000000e+004 4.306392935225e-007 
4.652200000000e+004 4.291421409159e-007 
4.662200000000e+004 4.276536467377e-007 
4.672200000000e+004 4.261737410172e-007 
4.682200000000e+004 4.247023545096e-007 
4.692200000000e+004 4.232394186864e-007 
4.702200000000e+004 4.217848657266e-007 
4.712200000000e+004 4.203386285077e-007 
4.722200000000e+004 4.189006405968e-007 
4.732200000000e+004 4.174708362422e-007 
4.742200000000e+004 4.160491503647e-007 
4.752200000000e+004 4.146355185493e-007 
4.762200000000e+004 4.132298770368e-007 
4.772200000000e+004 4.118321627159e-007 
4.782200000000e+004 4.104423131148e-007 
4.792200000000e+004 4.090602663937e-007 
4.802200000000e+004 4.076859613369e-007 
4.812200000000e+004 4.063193373446e-007 
4.822200000000e+004 4.049603344263e-007 
4.832200000000e+004 4.036088931924e-007 
4.842200000000e+004 4.022649548474e-007 
4.852200000000e+004 4.009284611826e-007 
4.862200000000e+004 3.995993545686e-007 
4.872200000000e+004 3.982775779488e-007 
4.882200000000e+004 3.969630748320e-007 
4.892200000000e+004 3.956557892858e-007 
4.902200000000e+004 3.943556659297e-007 
4.912200000000e+004 3.930626499287e-007 
4.922200000000e+004 3.917766869866e-007 
4.932200000000e+004 3.904977233394e-007 
4.942200000000e+004 3.892257057491e-007 
4.952200000000e+004 3.879605814975e-007 
4.962200000000e+004 3.867022983799e-007 
4.972200000000e+004 3.854508046989e-007 
4.982200000000e+004 3.842060492586e-007 
4.992200000000e+004 3.829679813584e-007 
5.002200000000e+004 3.817365507874e-007 
