TITLE = "Time curves in points"
VARIABLES = "TIME " ConsTracer 
ZONE T="POINT=POINT555"
0.000000000000e+000 0.000000000000e+000 
2.000000000000e-001 0.000000000000e+000 
4.000000000000e-001 2.700512594488e-039 
6.000000000000e-001 1.494392667244e-039 
8.000000000000e-001 3.422995636841e-039 
1.000000000000e+000 5.194424095613e-039 
1.200000000000e+000 4.237390739280e-039 
1.400000000000e+000 1.568654115385e-039 
1.600000000000e+000 5.590680697507e-039 
1.800000000000e+000 9.142809750797e-039 
2.000000000000e+000 1.205202944556e-038 
4.000000000000e+000 1.520932422645e-038 
6.000000000000e+000 1.874714986037e-038 
8.000000000000e+000 2.242209181367e-038 
1.000000000000e+001 2.624365499437e-038 
1.200000000000e+001 3.063283911399e-038 
1.400000000000e+001 3.564926597907e-038 
1.600000000000e+001 4.114264145633e-038 
1.800000000000e+001 4.719333578438e-038 
2.000000000000e+001 5.365968457421e-038 
2.200000000000e+001 6.041343450714e-038 
4.200000000000e+001 -1.850746178098e-035 
6.200000000000e+001 -1.609147538701e-024 
8.200000000000e+001 -1.160823704760e-022 
1.020000000000e+002 -2.721798016604e-021 
1.220000000000e+002 -3.464248593244e-020 
1.420000000000e+002 -3.063410459276e-019 
1.620000000000e+002 -2.068919976745e-018 
1.820000000000e+002 -1.118938968979e-017 
2.020000000000e+002 -4.972727734547e-017 
2.220000000000e+002 -1.877391846652e-016 
2.420000000000e+002 -6.129652200238e-016 
2.620000000000e+002 -1.814530817904e-015 
2.820000000000e+002 -4.913964718412e-015 
3.020000000000e+002 -1.192156571246e-014 
3.220000000000e+002 -2.622184728924e-014 
3.420000000000e+002 -5.260048930334e-014 
3.620000000000e+002 -9.689100178428e-014 
3.820000000000e+002 -1.648737355399e-013 
4.020000000000e+002 -2.605103477045e-013 
4.220000000000e+002 -3.833474539261e-013 
4.420000000000e+002 -5.250529212206e-013 
4.620000000000e+002 -6.659767677560e-013 
4.820000000000e+002 -7.743628494913e-013 
5.020000000000e+002 -8.102068617825e-013 
5.220000000000e+002 -7.391548677393e-013 
5.420000000000e+002 -5.383220498566e-013 
5.620000000000e+002 -2.021214724467e-013 
5.820000000000e+002 2.399636729855e-013 
6.020000000000e+002 7.031638778480e-013 
6.220000000000e+002 1.186379146987e-012 
6.420000000000e+002 1.695748538076e-012 
6.620000000000e+002 2.118159561172e-012 
6.820000000000e+002 2.422883822084e-012 
7.020000000000e+002 2.549046484566e-012 
7.220000000000e+002 2.459344710392e-012 
7.420000000000e+002 2.150752936613e-012 
7.620000000000e+002 1.660614151652e-012 
7.820000000000e+002 1.063042295296e-012 
8.020000000000e+002 4.557752041749e-013 
8.220000000000e+002 -8.572769476136e-014 
8.420000000000e+002 -4.922619858986e-013 
8.620000000000e+002 -1.435325344190e-013 
8.820000000000e+002 1.082757798967e-012 
9.020000000000e+002 3.464452062009e-012 
9.220000000000e+002 7.330425412395e-012 
9.420000000000e+002 1.327811605969e-011 
9.620000000000e+002 2.157084026719e-011 
9.820000000000e+002 3.331174942798e-011 
1.002000000000e+003 4.917788001883e-011 
1.022000000000e+003 7.066332947551e-011 
1.042000000000e+003 9.889583155719e-011 
1.062000000000e+003 1.359690352711e-010 
1.082000000000e+003 1.835867333912e-010 
1.102000000000e+003 2.444509504517e-010 
1.122000000000e+003 3.210519833997e-010 
1.142000000000e+003 4.166839741284e-010 
1.162000000000e+003 5.347816962357e-010 
1.182000000000e+003 6.793633370958e-010 
1.202000000000e+003 8.547615087331e-010 
1.222000000000e+003 1.065859541588e-009 
1.242000000000e+003 1.317923273607e-009 
1.262000000000e+003 1.616704285461e-009 
1.282000000000e+003 1.968431039162e-009 
1.302000000000e+003 2.379734616213e-009 
1.322000000000e+003 2.857768517882e-009 
1.342000000000e+003 3.410030530777e-009 
1.362000000000e+003 4.044533267072e-009 
1.382000000000e+003 4.769602946694e-009 
1.402000000000e+003 5.594024033771e-009 
1.422000000000e+003 6.526865329928e-009 
1.442000000000e+003 7.577600591858e-009 
1.462000000000e+003 8.755920795689e-009 
1.482000000000e+003 1.007187282327e-008 
1.502000000000e+003 1.153566867674e-008 
1.522000000000e+003 1.315777097811e-008 
1.542000000000e+003 1.494879840172e-008 
1.562000000000e+003 1.691949077929e-008 
1.582000000000e+003 1.908071881020e-008 
1.602000000000e+003 2.144338224090e-008 
1.622000000000e+003 2.401843888674e-008 
1.642000000000e+003 2.681682313051e-008 
1.662000000000e+003 2.984943598468e-008 
1.682000000000e+003 3.312710582352e-008 
1.702000000000e+003 3.666055151601e-008 
1.722000000000e+003 4.046035826049e-008 
1.742000000000e+003 4.453694269356e-008 
1.762000000000e+003 4.890052559522e-008 
1.782000000000e+003 5.356110639382e-008 
1.802000000000e+003 5.852843485032e-008 
1.822000000000e+003 6.381198983880e-008 
1.842000000000e+003 6.942095536376e-008 
1.862000000000e+003 7.536420095305e-008 
1.882000000000e+003 8.165026264454e-008 
1.902000000000e+003 8.828732595564e-008 
1.922000000000e+003 9.528321059211e-008 
1.942000000000e+003 1.026453569223e-007 
1.962000000000e+003 1.103808138983e-007 
1.982000000000e+003 1.184962289567e-007 
2.002000000000e+003 1.269978391767e-007 
2.022000000000e+003 1.358914642636e-007 
2.122000000000e+003 2.097289436437e-007 
2.222000000000e+003 2.967096055500e-007 
2.322000000000e+003 3.986945664876e-007 
2.422000000000e+003 5.150424151491e-007 
2.522000000000e+003 6.444327871860e-007 
2.622000000000e+003 7.852889222468e-007 
2.722000000000e+003 9.358981931702e-007 
2.822000000000e+003 1.094548399981e-006 
2.922000000000e+003 1.259580665392e-006 
3.022000000000e+003 1.429438988793e-006 
3.122000000000e+003 1.602692114588e-006 
3.222000000000e+003 1.778045966912e-006 
3.322000000000e+003 1.954346577368e-006 
3.422000000000e+003 2.130576939980e-006 
3.522000000000e+003 2.305850556492e-006 
3.622000000000e+003 2.479402427178e-006 
3.722000000000e+003 2.650579186803e-006 
3.822000000000e+003 2.818828706993e-006 
3.922000000000e+003 2.983689893624e-006 
4.022000000000e+003 3.144782856027e-006 
4.122000000000e+003 3.301799690590e-006 
4.222000000000e+003 3.454495952638e-006 
4.322000000000e+003 3.602682858495e-006 
4.422000000000e+003 3.746220222065e-006 
4.522000000000e+003 3.885010095308e-006 
4.622000000000e+003 4.018991079795e-006 
4.722000000000e+003 4.148133257564e-006 
4.822000000000e+003 4.272433694221e-006 
4.922000000000e+003 4.391912460756e-006 
5.022000000000e+003 4.506609125747e-006 
5.122000000000e+003 4.616579669485e-006 
5.222000000000e+003 4.721893776343e-006 
5.322000000000e+003 4.822632464157e-006 
5.422000000000e+003 4.918886013404e-006 
5.522000000000e+003 5.010752162296e-006 
5.622000000000e+003 5.098334537225e-006 
5.722000000000e+003 5.181741291208e-006 
5.822000000000e+003 5.261083925755e-006 
5.922000000000e+003 5.336476274400e-006 
6.022000000000e+003 5.408033628365e-006 
6.122000000000e+003 5.475871987213e-006 
6.222000000000e+003 5.540107419106e-006 
6.322000000000e+003 5.600855517207e-006 
6.422000000000e+003 5.658230940239e-006 
6.522000000000e+003 5.712347026638e-006 
6.622000000000e+003 5.763315473005e-006 
6.722000000000e+003 5.811246068611e-006 
6.822000000000e+003 5.856246478754e-006 
6.922000000000e+003 5.898422070550e-006 
7.022000000000e+003 5.937875775628e-006 
7.122000000000e+003 5.974707984681e-006 
7.222000000000e+003 6.009016469695e-006 
7.322000000000e+003 6.040896329882e-006 
7.422000000000e+003 6.070439958142e-006 
7.522000000000e+003 6.097737024968e-006 
7.622000000000e+003 6.122874477377e-006 
7.722000000000e+003 6.145936550473e-006 
7.822000000000e+003 6.167004789811e-006 
7.922000000000e+003 6.186158082710e-006 
8.022000000000e+003 6.203472697146e-006 
8.122000000000e+003 6.219022326768e-006 
8.222000000000e+003 6.232878141067e-006 
8.322000000000e+003 6.245108839498e-006 
8.422000000000e+003 6.255780708934e-006 
8.522000000000e+003 6.264957683441e-006 
8.622000000000e+003 6.272701405993e-006 
8.722000000000e+003 6.279071291321e-006 
8.822000000000e+003 6.284124589650e-006 
8.922000000000e+003 6.287916450673e-006 
9.022000000000e+003 6.290499987675e-006 
9.122000000000e+003 6.291926341232e-006 
9.222000000000e+003 6.292244742484e-006 
9.322000000000e+003 6.291502575568e-006 
9.422000000000e+003 6.289745439214e-006 
9.522000000000e+003 6.287017207158e-006 
9.622000000000e+003 6.283360087473e-006 
9.722000000000e+003 6.278814680525e-006 
9.822000000000e+003 6.273420035622e-006 
9.922000000000e+003 6.267213706203e-006 
1.002200000000e+004 6.260231803598e-006 
1.012200000000e+004 6.252509049259e-006 
1.022200000000e+004 6.244078825511e-006 
1.032200000000e+004 6.234973224770e-006 
1.042200000000e+004 6.225223097237e-006 
1.052200000000e+004 6.214858097095e-006 
1.062200000000e+004 6.203906727190e-006 
1.072200000000e+004 6.192396382256e-006 
1.082200000000e+004 6.180353390638e-006 
1.092200000000e+004 6.167803054657e-006 
1.102200000000e+004 6.154769689470e-006 
1.112200000000e+004 6.141276660672e-006 
1.122200000000e+004 6.127346420441e-006 
1.132200000000e+004 6.113000542496e-006 
1.142200000000e+004 6.098259755662e-006 
1.152200000000e+004 6.083143976325e-006 
1.162200000000e+004 6.067672339563e-006 
1.172200000000e+004 6.051863229239e-006 
1.182200000000e+004 6.035734306845e-006 
1.192200000000e+004 6.019302539375e-006 
1.202200000000e+004 6.002584226034e-006 
1.212200000000e+004 5.985595024029e-006 
1.222200000000e+004 5.968349973279e-006 
1.232200000000e+004 5.950863520276e-006 
1.242200000000e+004 5.933149540930e-006 
1.252200000000e+004 5.915221362616e-006 
1.262200000000e+004 5.897091785314e-006 
1.272200000000e+004 5.878773101957e-006 
1.282200000000e+004 5.860277117974e-006 
1.292200000000e+004 5.841615170091e-006 
1.302200000000e+004 5.822798144367e-006 
1.312200000000e+004 5.803836493591e-006 
1.322200000000e+004 5.784740253896e-006 
1.332200000000e+004 5.765519060862e-006 
1.342200000000e+004 5.746182164833e-006 
1.352200000000e+004 5.726738445804e-006 
1.362200000000e+004 5.707196427560e-006 
1.372200000000e+004 5.687564291399e-006 
1.382200000000e+004 5.667849889229e-006 
1.392200000000e+004 5.648060756211e-006 
1.402200000000e+004 5.628204122857e-006 
1.412200000000e+004 5.608286926713e-006 
1.422200000000e+004 5.588315823520e-006 
1.432200000000e+004 5.568297198015e-006 
1.442200000000e+004 5.548237174232e-006 
1.452200000000e+004 5.528141625474e-006 
1.462200000000e+004 5.508016183842e-006 
1.472200000000e+004 5.487866249431e-006 
1.482200000000e+004 5.467696999140e-006 
1.492200000000e+004 5.447513395170e-006 
1.502200000000e+004 5.427320193159e-006 
1.512200000000e+004 5.407121950044e-006 
1.522200000000e+004 5.386923031561e-006 
1.532200000000e+004 5.366727619532e-006 
1.542200000000e+004 5.346539718784e-006 
1.552200000000e+004 5.326363163891e-006 
1.562200000000e+004 5.306201625564e-006 
1.572200000000e+004 5.286058616895e-006 
1.582200000000e+004 5.265937499259e-006 
1.592200000000e+004 5.245841488087e-006 
1.602200000000e+004 5.225773658331e-006 
1.612200000000e+004 5.205736949797e-006 
1.622200000000e+004 5.185734172211e-006 
1.632200000000e+004 5.165768010143e-006 
1.642200000000e+004 5.145841027697e-006 
1.652200000000e+004 5.125955673076e-006 
1.662200000000e+004 5.106114282905e-006 
1.672200000000e+004 5.086319086485e-006 
1.682200000000e+004 5.066572209763e-006 
1.692200000000e+004 5.046875679298e-006 
1.702200000000e+004 5.027231425921e-006 
1.712200000000e+004 5.007641288399e-006 
1.722200000000e+004 4.988107016868e-006 
1.732200000000e+004 4.968630276172e-006 
1.742200000000e+004 4.949212649074e-006 
1.752200000000e+004 4.929855639356e-006 
1.762200000000e+004 4.910560674772e-006 
1.772200000000e+004 4.891329109935e-006 
1.782200000000e+004 4.872162229049e-006 
1.792200000000e+004 4.853061248595e-006 
1.802200000000e+004 4.834027319846e-006 
1.812200000000e+004 4.815061531375e-006 
1.822200000000e+004 4.796164911376e-006 
1.832200000000e+004 4.777338429992e-006 
1.842200000000e+004 4.758583001474e-006 
1.852200000000e+004 4.739899486331e-006 
1.862200000000e+004 4.721288693338e-006 
1.872200000000e+004 4.702751381532e-006 
1.882200000000e+004 4.684288262071e-006 
1.892200000000e+004 4.665900000090e-006 
1.902200000000e+004 4.647587216421e-006 
1.912200000000e+004 4.629350489323e-006 
1.922200000000e+004 4.611190356075e-006 
1.932200000000e+004 4.593107314576e-006 
1.942200000000e+004 4.575101824834e-006 
1.952200000000e+004 4.557174310448e-006 
1.962200000000e+004 4.539325159984e-006 
1.972200000000e+004 4.521554728364e-006 
1.982200000000e+004 4.503863338131e-006 
1.992200000000e+004 4.486251280745e-006 
2.002200000000e+004 4.468718817761e-006 
2.012200000000e+004 4.451266182026e-006 
2.022200000000e+004 4.433893578780e-006 
2.032200000000e+004 4.416601186762e-006 
2.042200000000e+004 4.399389159233e-006 
2.052200000000e+004 4.382257625015e-006 
2.062200000000e+004 4.365206689427e-006 
2.072200000000e+004 4.348236435255e-006 
2.082200000000e+004 4.331346923626e-006 
2.092200000000e+004 4.314538194906e-006 
2.102200000000e+004 4.297810269514e-006 
2.112200000000e+004 4.281163148751e-006 
2.122200000000e+004 4.264596815567e-006 
2.132200000000e+004 4.248111235322e-006 
2.142200000000e+004 4.231706356503e-006 
2.152200000000e+004 4.215382111432e-006 
2.162200000000e+004 4.199138416930e-006 
2.172200000000e+004 4.182975174979e-006 
2.182200000000e+004 4.166892273334e-006 
2.192200000000e+004 4.150889586143e-006 
2.202200000000e+004 4.134966974512e-006 
2.212200000000e+004 4.119124287089e-006 
2.222200000000e+004 4.103361360577e-006 
2.232200000000e+004 4.087678020287e-006 
2.242200000000e+004 4.072074080614e-006 
2.252200000000e+004 4.056549345545e-006 
2.262200000000e+004 4.041103609106e-006 
2.272200000000e+004 4.025736655835e-006 
2.282200000000e+004 4.010448261196e-006 
2.292200000000e+004 3.995238192016e-006 
2.302200000000e+004 3.980106206874e-006 
2.312200000000e+004 3.965052056510e-006 
2.322200000000e+004 3.950075484175e-006 
2.332200000000e+004 3.935176226022e-006 
2.342200000000e+004 3.920354011428e-006 
2.352200000000e+004 3.905608563358e-006 
2.362200000000e+004 3.890939598661e-006 
2.372200000000e+004 3.876346828410e-006 
2.382200000000e+004 3.861829958181e-006 
2.392200000000e+004 3.847388688363e-006 
2.402200000000e+004 3.833022714419e-006 
2.412200000000e+004 3.818731727176e-006 
2.422200000000e+004 3.804515413065e-006 
2.432200000000e+004 3.790373454393e-006 
2.442200000000e+004 3.776305529562e-006 
2.452200000000e+004 3.762311313325e-006 
2.462200000000e+004 3.748390476986e-006 
2.472200000000e+004 3.734542688642e-006 
2.482200000000e+004 3.720767613367e-006 
2.492200000000e+004 3.707064913433e-006 
2.502200000000e+004 3.693434248484e-006 
2.512200000000e+004 3.679875275741e-006 
2.522200000000e+004 3.666387650163e-006 
2.532200000000e+004 3.652971024638e-006 
2.542200000000e+004 3.639625050132e-006 
2.552200000000e+004 3.626349375860e-006 
2.562200000000e+004 3.613143649434e-006 
2.572200000000e+004 3.600007517016e-006 
2.582200000000e+004 3.586940623456e-006 
2.592200000000e+004 3.573942612434e-006 
2.602200000000e+004 3.561013126584e-006 
2.612200000000e+004 3.548151807632e-006 
2.622200000000e+004 3.535358296508e-006 
2.632200000000e+004 3.522632233472e-006 
2.642200000000e+004 3.509973258217e-006 
2.652200000000e+004 3.497381009990e-006 
2.662200000000e+004 3.484855127681e-006 
2.672200000000e+004 3.472395249941e-006 
2.682200000000e+004 3.460001015262e-006 
2.692200000000e+004 3.447672062082e-006 
2.702200000000e+004 3.435408028865e-006 
2.712200000000e+004 3.423208554191e-006 
2.722200000000e+004 3.411073276837e-006 
2.732200000000e+004 3.399001835856e-006 
2.742200000000e+004 3.386993870651e-006 
2.752200000000e+004 3.375049021049e-006 
2.762200000000e+004 3.363166927370e-006 
2.772200000000e+004 3.351347230492e-006 
2.782200000000e+004 3.339589571916e-006 
2.792200000000e+004 3.327893593829e-006 
2.802200000000e+004 3.316258939158e-006 
2.812200000000e+004 3.304685251630e-006 
2.822200000000e+004 3.293172175823e-006 
2.832200000000e+004 3.281719357220e-006 
2.842200000000e+004 3.270326442255e-006 
2.852200000000e+004 3.258993078361e-006 
2.862200000000e+004 3.247718914015e-006 
2.872200000000e+004 3.236503598782e-006 
2.882200000000e+004 3.225346783352e-006 
2.892200000000e+004 3.214248119583e-006 
2.902200000000e+004 3.203207260536e-006 
2.912200000000e+004 3.192223860510e-006 
2.922200000000e+004 3.181297575077e-006 
2.932200000000e+004 3.170428061113e-006 
2.942200000000e+004 3.159614976827e-006 
2.952200000000e+004 3.148857981795e-006 
2.962200000000e+004 3.138156736979e-006 
2.972200000000e+004 3.127510904763e-006 
2.982200000000e+004 3.116920148968e-006 
2.992200000000e+004 3.106384134881e-006 
3.002200000000e+004 3.095902529278e-006 
3.012200000000e+004 3.085475000439e-006 
3.022200000000e+004 3.075101218173e-006 
3.032200000000e+004 3.064780853835e-006 
3.042200000000e+004 3.054513580341e-006 
3.052200000000e+004 3.044299072186e-006 
3.062200000000e+004 3.034137005462e-006 
3.072200000000e+004 3.024027057867e-006 
3.082200000000e+004 3.013968908721e-006 
3.092200000000e+004 3.003962238979e-006 
3.102200000000e+004 2.994006731241e-006 
3.112200000000e+004 2.984102069765e-006 
3.122200000000e+004 2.974247940472e-006 
3.132200000000e+004 2.964444030961e-006 
3.142200000000e+004 2.954690030512e-006 
3.152200000000e+004 2.944985630098e-006 
3.162200000000e+004 2.935330522387e-006 
3.172200000000e+004 2.925724401754e-006 
3.182200000000e+004 2.916166964280e-006 
3.192200000000e+004 2.906657907761e-006 
3.202200000000e+004 2.897196931711e-006 
3.212200000000e+004 2.887783737367e-006 
3.222200000000e+004 2.878418027688e-006 
3.232200000000e+004 2.869099507363e-006 
3.242200000000e+004 2.859827882808e-006 
3.252200000000e+004 2.850602862171e-006 
3.262200000000e+004 2.841424155330e-006 
3.272200000000e+004 2.832291473897e-006 
3.282200000000e+004 2.823204531214e-006 
3.292200000000e+004 2.814163042358e-006 
3.302200000000e+004 2.805166724132e-006 
3.312200000000e+004 2.796215295073e-006 
3.322200000000e+004 2.787308475444e-006 
3.332200000000e+004 2.778445987235e-006 
3.342200000000e+004 2.769627554159e-006 
3.352200000000e+004 2.760852901652e-006 
3.362200000000e+004 2.752121756867e-006 
3.372200000000e+004 2.743433848671e-006 
3.382200000000e+004 2.734788907644e-006 
3.392200000000e+004 2.726186666075e-006 
3.402200000000e+004 2.717626857952e-006 
3.412200000000e+004 2.709109218967e-006 
3.422200000000e+004 2.700633486502e-006 
3.432200000000e+004 2.692199399632e-006 
3.442200000000e+004 2.683806699116e-006 
3.452200000000e+004 2.675455127389e-006 
3.462200000000e+004 2.667144428563e-006 
3.472200000000e+004 2.658874348417e-006 
3.482200000000e+004 2.650644634391e-006 
3.492200000000e+004 2.642455035580e-006 
3.502200000000e+004 2.634305302731e-006 
3.512200000000e+004 2.626195188233e-006 
3.522200000000e+004 2.618124446110e-006 
3.532200000000e+004 2.610092832017e-006 
3.542200000000e+004 2.602100103232e-006 
3.552200000000e+004 2.594146018648e-006 
3.562200000000e+004 2.586230338767e-006 
3.572200000000e+004 2.578352825692e-006 
3.582200000000e+004 2.570513243120e-006 
3.592200000000e+004 2.562711356335e-006 
3.602200000000e+004 2.554946932197e-006 
3.612200000000e+004 2.547219739142e-006 
3.622200000000e+004 2.539529547165e-006 
3.632200000000e+004 2.531876127817e-006 
3.642200000000e+004 2.524259254200e-006 
3.652200000000e+004 2.516678700951e-006 
3.662200000000e+004 2.509134244240e-006 
3.672200000000e+004 2.501625661761e-006 
3.682200000000e+004 2.494152732722e-006 
3.692200000000e+004 2.486715237838e-006 
3.702200000000e+004 2.479312959322e-006 
3.712200000000e+004 2.471945680877e-006 
3.722200000000e+004 2.464613187688e-006 
3.732200000000e+004 2.457315266413e-006 
3.742200000000e+004 2.450051705173e-006 
3.752200000000e+004 2.442822293547e-006 
3.762200000000e+004 2.435626822561e-006 
3.772200000000e+004 2.428465084679e-006 
3.782200000000e+004 2.421336873797e-006 
3.792200000000e+004 2.414241985229e-006 
3.802200000000e+004 2.407180215708e-006 
3.812200000000e+004 2.400151363364e-006 
3.822200000000e+004 2.393155227729e-006 
3.832200000000e+004 2.386191609719e-006 
3.842200000000e+004 2.379260311628e-006 
3.852200000000e+004 2.372361137120e-006 
3.862200000000e+004 2.365493891222e-006 
3.872200000000e+004 2.358658380310e-006 
3.882200000000e+004 2.351854412105e-006 
3.892200000000e+004 2.345081795663e-006 
3.902200000000e+004 2.338340341367e-006 
3.912200000000e+004 2.331629860915e-006 
3.922200000000e+004 2.324950167316e-006 
3.932200000000e+004 2.318301074879e-006 
3.942200000000e+004 2.311682399204e-006 
3.952200000000e+004 2.305093957174e-006 
3.962200000000e+004 2.298535566947e-006 
3.972200000000e+004 2.292007047946e-006 
3.982200000000e+004 2.285508220854e-006 
3.992200000000e+004 2.279038907597e-006 
4.002200000000e+004 2.272598931348e-006 
4.012200000000e+004 2.266188116507e-006 
4.022200000000e+004 2.259806288700e-006 
4.032200000000e+004 2.253453274765e-006 
4.042200000000e+004 2.247128902751e-006 
4.052200000000e+004 2.240833001900e-006 
4.062200000000e+004 2.234565402648e-006 
4.072200000000e+004 2.228325936610e-006 
4.082200000000e+004 2.222114436575e-006 
4.092200000000e+004 2.215930736498e-006 
4.102200000000e+004 2.209774671489e-006 
4.112200000000e+004 2.203646077807e-006 
4.122200000000e+004 2.197544792852e-006 
4.132200000000e+004 2.191470655157e-006 
4.142200000000e+004 2.185423504378e-006 
4.152200000000e+004 2.179403181287e-006 
4.162200000000e+004 2.173409527767e-006 
4.172200000000e+004 2.167442386797e-006 
4.182200000000e+004 2.161501602452e-006 
4.192200000000e+004 2.155587019890e-006 
4.202200000000e+004 2.149698485346e-006 
4.212200000000e+004 2.143835846125e-006 
4.222200000000e+004 2.137998950590e-006 
4.232200000000e+004 2.132187648161e-006 
4.242200000000e+004 2.126401789303e-006 
4.252200000000e+004 2.120641225517e-006 
4.262200000000e+004 2.114905809337e-006 
4.272200000000e+004 2.109195394319e-006 
4.282200000000e+004 2.103509835035e-006 
4.292200000000e+004 2.097848987065e-006 
4.302200000000e+004 2.092212706989e-006 
4.312200000000e+004 2.086600852381e-006 
4.322200000000e+004 2.081013281801e-006 
4.332200000000e+004 2.075449854787e-006 
4.342200000000e+004 2.069910431851e-006 
4.352200000000e+004 2.064394874465e-006 
4.362200000000e+004 2.058903045063e-006 
4.372200000000e+004 2.053434807025e-006 
4.382200000000e+004 2.047990024677e-006 
4.392200000000e+004 2.042568563279e-006 
4.402200000000e+004 2.037170289021e-006 
4.412200000000e+004 2.031795069014e-006 
4.422200000000e+004 2.026442771287e-006 
4.432200000000e+004 2.021113264774e-006 
4.442200000000e+004 2.015806419313e-006 
4.452200000000e+004 2.010522105636e-006 
4.462200000000e+004 2.005260195363e-006 
4.472200000000e+004 2.000020560996e-006 
4.482200000000e+004 1.994803075913e-006 
4.492200000000e+004 1.989607614358e-006 
4.502200000000e+004 1.984434051439e-006 
4.512200000000e+004 1.979282263117e-006 
4.522200000000e+004 1.974152126206e-006 
4.532200000000e+004 1.969043518358e-006 
4.542200000000e+004 1.963956318065e-006 
4.552200000000e+004 1.958890404647e-006 
4.562200000000e+004 1.953845658248e-006 
4.572200000000e+004 1.948821959829e-006 
4.582200000000e+004 1.943819191165e-006 
4.592200000000e+004 1.938837234832e-006 
4.602200000000e+004 1.933875974210e-006 
4.612200000000e+004 1.928935293468e-006 
4.622200000000e+004 1.924015077566e-006 
4.632200000000e+004 1.919115212240e-006 
4.642200000000e+004 1.914235584008e-006 
4.652200000000e+004 1.909376080151e-006 
4.662200000000e+004 1.904536588719e-006 
4.672200000000e+004 1.899716998517e-006 
4.682200000000e+004 1.894917199103e-006 
4.692200000000e+004 1.890137080781e-006 
4.702200000000e+004 1.885376534596e-006 
4.712200000000e+004 1.880635452330e-006 
4.722200000000e+004 1.875913726492e-006 
4.732200000000e+004 1.871211250316e-006 
4.742200000000e+004 1.866527917757e-006 
4.752200000000e+004 1.861863623480e-006 
4.762200000000e+004 1.857218262861e-006 
4.772200000000e+004 1.852591731976e-006 
4.782200000000e+004 1.847983927599e-006 
4.792200000000e+004 1.843394747197e-006 
4.802200000000e+004 1.838824088922e-006 
4.812200000000e+004 1.834271851610e-006 
4.822200000000e+004 1.829737934771e-006 
4.832200000000e+004 1.825222238587e-006 
4.842200000000e+004 1.820724663908e-006 
4.852200000000e+004 1.816245112243e-006 
4.862200000000e+004 1.811783485757e-006 
4.872200000000e+004 1.807339687268e-006 
4.882200000000e+004 1.802913620241e-006 
4.892200000000e+004 1.798505188779e-006 
4.902200000000e+004 1.794114297624e-006 
4.912200000000e+004 1.789740852150e-006 
4.922200000000e+004 1.785384758358e-006 
4.932200000000e+004 1.781045922869e-006 
4.942200000000e+004 1.776724252926e-006 
4.952200000000e+004 1.772419656381e-006 
4.962200000000e+004 1.768132041696e-006 
4.972200000000e+004 1.763861317936e-006 
4.982200000000e+004 1.759607394768e-006 
4.992200000000e+004 1.755370182449e-006 
5.002200000000e+004 1.751149591831e-006 
