 TITLE = "Profiles along polylines"
 VARIABLES = "DIST" "HEAD" "TRACER" "TEMPERATURE1" 
 ZONE T="TIME=0.000000000000e+000"
0.000000000000e+000 1.000000000000e+000 1.000000000000e-010 2.831500000000e+002 
5.000000000000e-004 1.000000000000e+000 1.000000000000e-010 2.831500000000e+002 
1.000000000000e-003 1.000000000000e+000 1.000000000000e-010 2.831500000000e+002 
1.500000000000e-003 1.000000000000e+000 1.000000000000e-010 2.831500000000e+002 
2.000000000000e-003 1.000000000000e+000 1.000000000000e-010 2.831500000000e+002 
2.500000000000e-003 1.000000000000e+000 1.000000000000e-010 2.831500000000e+002 
3.000000000000e-003 1.000000000000e+000 1.000000000000e-010 2.831500000000e+002 
3.500000000000e-003 1.000000000000e+000 1.000000000000e-010 2.831500000000e+002 
4.000000000000e-003 1.000000000000e+000 1.000000000000e-010 2.831500000000e+002 
4.500000000000e-003 1.000000000000e+000 1.000000000000e-010 2.831500000000e+002 
5.000000000000e-003 1.000000000000e+000 1.000000000000e-010 2.831500000000e+002 
5.500000000000e-003 1.000000000000e+000 1.000000000000e-010 2.831500000000e+002 
6.000000000000e-003 1.000000000000e+000 1.000000000000e-010 2.831500000000e+002 
6.500000000000e-003 1.000000000000e+000 1.000000000000e-010 2.831500000000e+002 
7.000000000000e-003 1.000000000000e+000 1.000000000000e-010 2.831500000000e+002 
7.500000000000e-003 1.000000000000e+000 1.000000000000e-010 2.831500000000e+002 
8.000000000000e-003 1.000000000000e+000 1.000000000000e-010 2.831500000000e+002 
8.500000000000e-003 1.000000000000e+000 1.000000000000e-010 2.831500000000e+002 
9.000000000000e-003 1.000000000000e+000 1.000000000000e-010 2.831500000000e+002 
9.500000000000e-003 1.000000000000e+000 1.000000000000e-010 2.831500000000e+002 
1.000000000000e-002 1.000000000000e+000 1.000000000000e-010 2.831500000000e+002 
1.050000000000e-002 1.000000000000e+000 1.000000000000e-010 2.831500000000e+002 
1.100000000000e-002 1.000000000000e+000 1.000000000000e-010 2.831500000000e+002 
1.150000000000e-002 1.000000000000e+000 1.000000000000e-010 2.831500000000e+002 
1.200000000000e-002 1.000000000000e+000 1.000000000000e-010 2.831500000000e+002 
1.250000000000e-002 1.000000000000e+000 1.000000000000e-010 2.831500000000e+002 
1.300000000000e-002 1.000000000000e+000 1.000000000000e-010 2.831500000000e+002 
1.350000000000e-002 1.000000000000e+000 1.000000000000e-010 2.831500000000e+002 
1.400000000000e-002 1.000000000000e+000 1.000000000000e-010 2.831500000000e+002 
1.450000000000e-002 1.000000000000e+000 1.000000000000e-010 2.831500000000e+002 
1.500000000000e-002 1.000000000000e+000 1.000000000000e-010 2.831500000000e+002 
1.550000000000e-002 1.000000000000e+000 1.000000000000e-010 2.831500000000e+002 
1.600000000000e-002 1.000000000000e+000 1.000000000000e-010 2.831500000000e+002 
1.650000000000e-002 1.000000000000e+000 1.000000000000e-010 2.831500000000e+002 
1.700000000000e-002 1.000000000000e+000 1.000000000000e-010 2.831500000000e+002 
1.750000000000e-002 1.000000000000e+000 1.000000000000e-010 2.831500000000e+002 
1.800000000000e-002 1.000000000000e+000 1.000000000000e-010 2.831500000000e+002 
1.850000000000e-002 1.000000000000e+000 1.000000000000e-010 2.831500000000e+002 
1.900000000000e-002 1.000000000000e+000 1.000000000000e-010 2.831500000000e+002 
1.950000000000e-002 1.000000000000e+000 1.000000000000e-010 2.831500000000e+002 
2.000000000000e-002 1.000000000000e+000 1.000000000000e-010 2.831500000000e+002 
2.050000000000e-002 1.000000000000e+000 1.000000000000e-010 2.831500000000e+002 
2.100000000000e-002 1.000000000000e+000 1.000000000000e-010 2.831500000000e+002 
2.150000000000e-002 1.000000000000e+000 1.000000000000e-010 2.831500000000e+002 
2.200000000000e-002 1.000000000000e+000 1.000000000000e-010 2.831500000000e+002 
2.250000000000e-002 1.000000000000e+000 1.000000000000e-010 2.831500000000e+002 
2.300000000000e-002 1.000000000000e+000 1.000000000000e-010 2.831500000000e+002 
2.350000000000e-002 1.000000000000e+000 1.000000000000e-010 2.831500000000e+002 
2.400000000000e-002 1.000000000000e+000 1.000000000000e-010 2.831500000000e+002 
2.450000000000e-002 1.000000000000e+000 1.000000000000e-010 2.831500000000e+002 
2.500000000000e-002 1.000000000000e+000 1.000000000000e-010 2.831500000000e+002 
 ZONE T="TIME=8.640000000000e+003"
0.000000000000e+000 9.984987745000e-001 9.942228002289e-001 2.831500000000e+002 
5.000000000000e-004 9.984987745000e-001 9.942210982085e-001 2.831500000000e+002 
1.000000000000e-003 9.984987745000e-001 9.942148926037e-001 2.831500000000e+002 
1.500000000000e-003 9.984987745000e-001 9.942003863332e-001 2.831500000000e+002 
2.000000000000e-003 9.984987745000e-001 9.941694643630e-001 2.831500000000e+002 
2.500000000000e-003 9.984987745000e-001 9.941065864407e-001 2.831500000000e+002 
3.000000000000e-003 9.984987745000e-001 9.939836058641e-001 2.831500000000e+002 
3.500000000000e-003 9.984987745000e-001 9.937517718487e-001 2.831500000000e+002 
4.000000000000e-003 9.984987745000e-001 9.933301541624e-001 2.831500000000e+002 
4.500000000000e-003 9.984987745000e-001 9.925899536423e-001 2.831500000000e+002 
5.000000000000e-003 9.984987745000e-001 9.913347468638e-001 2.831500000000e+002 
5.500000000000e-003 9.984987745000e-001 9.892777393896e-001 2.831500000000e+002 
6.000000000000e-003 9.984987745000e-001 9.860185614541e-001 2.831500000000e+002 
6.500000000000e-003 9.984987745000e-001 9.810238605727e-001 2.831500000000e+002 
7.000000000000e-003 9.984987745000e-001 9.736175991217e-001 2.831500000000e+002 
7.500000000000e-003 9.984987745000e-001 9.629879438321e-001 2.831500000000e+002 
8.000000000000e-003 9.984987745000e-001 9.482173742423e-001 2.831500000000e+002 
8.500000000000e-003 9.984987745000e-001 9.283405767510e-001 2.831500000000e+002 
9.000000000000e-003 9.984987745000e-001 9.024306229797e-001 2.831500000000e+002 
9.500000000000e-003 9.984987745000e-001 8.697082062914e-001 2.831500000000e+002 
1.000000000000e-002 9.984987745000e-001 8.296622736671e-001 2.831500000000e+002 
1.050000000000e-002 9.984987745000e-001 7.821648192197e-001 2.831500000000e+002 
1.100000000000e-002 9.984987745000e-001 7.275594686416e-001 2.831500000000e+002 
1.150000000000e-002 9.984987745000e-001 6.667044349814e-001 2.831500000000e+002 
1.200000000000e-002 9.984987745000e-001 6.009556295876e-001 2.831500000000e+002 
1.250000000000e-002 9.984987745000e-001 5.320851329836e-001 2.831500000000e+002 
1.300000000000e-002 9.984987745000e-001 4.621417263275e-001 2.831500000000e+002 
1.350000000000e-002 9.984987745000e-001 3.932712232617e-001 2.831500000000e+002 
1.400000000000e-002 9.984987745000e-001 3.275224193664e-001 2.831500000000e+002 
1.450000000000e-002 9.984987745000e-001 2.666673901285e-001 2.831500000000e+002 
1.500000000000e-002 9.984987745000e-001 2.120620414819e-001 2.831500000000e+002 
1.550000000000e-002 9.984987745000e-001 1.645645789795e-001 2.831500000000e+002 
1.600000000000e-002 9.984987745000e-001 1.245186449500e-001 2.831500000000e+002 
1.650000000000e-002 9.984987745000e-001 9.179623559140e-002 2.831500000000e+002 
1.700000000000e-002 9.984987745000e-001 6.588628137762e-002 2.831500000000e+002 
1.750000000000e-002 9.984987745000e-001 4.600947984456e-002 2.831500000000e+002 
1.800000000000e-002 9.984987745000e-001 3.123890986351e-002 2.831500000000e+002 
1.850000000000e-002 9.984987745000e-001 2.060925568453e-002 2.831500000000e+002 
1.900000000000e-002 9.984987745000e-001 1.320299533007e-002 2.831500000000e+002 
1.950000000000e-002 9.984987745000e-001 8.208293461282e-003 2.831500000000e+002 
2.000000000000e-002 9.984987745000e-001 4.949114874555e-003 2.831500000000e+002 
2.050000000000e-002 9.984987745000e-001 2.892108058391e-003 2.831500000000e+002 
2.100000000000e-002 9.984987745000e-001 1.636902080357e-003 2.831500000000e+002 
2.150000000000e-002 9.984987745000e-001 8.967037605676e-004 2.831500000000e+002 
2.200000000000e-002 9.984987745000e-001 4.750933992701e-004 2.831500000000e+002 
2.250000000000e-002 9.984987745000e-001 2.432814104649e-004 2.831500000000e+002 
2.300000000000e-002 9.984987745000e-001 1.203628353384e-004 2.831500000000e+002 
2.350000000000e-002 9.984987745000e-001 5.765138629228e-005 2.831500000000e+002 
2.400000000000e-002 9.984987745000e-001 2.715560388297e-005 2.831500000000e+002 
2.450000000000e-002 9.984987745000e-001 1.369157987902e-005 2.831500000000e+002 
2.500000000000e-002 9.984987745000e-001 9.924978495731e-006 2.831500000000e+002 
 ZONE T="TIME=1.728000000000e+004"
0.000000000000e+000 9.984987745000e-001 9.996881718788e-001 2.831500000000e+002 
5.000000000000e-004 9.984987745000e-001 9.996864583289e-001 2.831500000000e+002 
1.000000000000e-003 9.984987745000e-001 9.996802105276e-001 2.831500000000e+002 
1.500000000000e-003 9.984987745000e-001 9.996656047307e-001 2.831500000000e+002 
2.000000000000e-003 9.984987745000e-001 9.996344695185e-001 2.831500000000e+002 
2.500000000000e-003 9.984987745000e-001 9.995711577753e-001 2.831500000000e+002 
3.000000000000e-003 9.984987745000e-001 9.994473322732e-001 2.831500000000e+002 
3.500000000000e-003 9.984987745000e-001 9.992139184352e-001 2.831500000000e+002 
4.000000000000e-003 9.984987745000e-001 9.987894598244e-001 2.831500000000e+002 
4.500000000000e-003 9.984987745000e-001 9.980443397624e-001 2.831500000000e+002 
5.000000000000e-003 9.984987745000e-001 9.967809197618e-001 2.831500000000e+002 
5.500000000000e-003 9.984987745000e-001 9.947106791184e-001 2.831500000000e+002 
6.000000000000e-003 9.984987745000e-001 9.914309056626e-001 2.831500000000e+002 
6.500000000000e-003 9.984987745000e-001 9.864052165517e-001 2.831500000000e+002 
7.000000000000e-003 9.984987745000e-001 9.789538473516e-001 2.831500000000e+002 
7.500000000000e-003 9.984987745000e-001 9.682606257727e-001 2.831500000000e+002 
8.000000000000e-003 9.984987745000e-001 9.534032832469e-001 2.831500000000e+002 
8.500000000000e-003 9.984987745000e-001 9.334116810729e-001 2.831500000000e+002 
9.000000000000e-003 9.984987745000e-001 9.073544400971e-001 2.831500000000e+002 
9.500000000000e-003 9.984987745000e-001 8.744487116985e-001 2.831500000000e+002 
1.000000000000e-002 9.984987745000e-001 8.341813662174e-001 2.831500000000e+002 
1.050000000000e-002 9.984987745000e-001 7.864242854741e-001 2.831500000000e+002 
1.100000000000e-002 9.984987745000e-001 7.315233025406e-001 2.831500000000e+002 
1.150000000000e-002 9.984987745000e-001 6.703412939299e-001 2.831500000000e+002 
1.200000000000e-002 9.984987745000e-001 6.042411578069e-001 2.831500000000e+002 
1.250000000000e-002 9.984987745000e-001 5.350038740072e-001 2.831500000000e+002 
1.300000000000e-002 9.984987745000e-001 4.646883815915e-001 2.831500000000e+002 
1.350000000000e-002 9.984987745000e-001 3.954510912974e-001 2.831500000000e+002 
1.400000000000e-002 9.984987745000e-001 3.293509566842e-001 2.831500000000e+002 
1.450000000000e-002 9.984987745000e-001 2.681689525046e-001 2.831500000000e+002 
1.500000000000e-002 9.984987745000e-001 2.132679715308e-001 2.831500000000e+002 
1.550000000000e-002 9.984987745000e-001 1.655108826768e-001 2.831500000000e+002 
1.600000000000e-002 9.984987745000e-001 1.252435357866e-001 2.831500000000e+002 
1.650000000000e-002 9.984987745000e-001 9.233781475772e-002 2.831500000000e+002 
1.700000000000e-002 9.984987745000e-001 6.628057333470e-002 2.831500000000e+002 
1.750000000000e-002 9.984987745000e-001 4.628896709985e-002 2.831500000000e+002 
1.800000000000e-002 9.984987745000e-001 3.143162417683e-002 2.831500000000e+002 
1.850000000000e-002 9.984987745000e-001 2.073840371581e-002 2.831500000000e+002 
1.900000000000e-002 9.984987745000e-001 1.328703560870e-002 2.831500000000e+002 
1.950000000000e-002 9.984987745000e-001 8.261345536640e-003 2.831500000000e+002 
2.000000000000e-002 9.984987745000e-001 4.981571390244e-003 2.831500000000e+002 
2.050000000000e-002 9.984987745000e-001 2.911331411076e-003 2.831500000000e+002 
2.100000000000e-002 9.984987745000e-001 1.647912231973e-003 2.831500000000e+002 
2.150000000000e-002 9.984987745000e-001 9.027943667087e-004 2.831500000000e+002 
2.200000000000e-002 9.984987745000e-001 4.783431064599e-004 2.831500000000e+002 
2.250000000000e-002 9.984987745000e-001 2.449513737314e-004 2.831500000000e+002 
2.300000000000e-002 9.984987745000e-001 1.211882185098e-004 2.831500000000e+002 
2.350000000000e-002 9.984987745000e-001 5.804390550640e-005 2.831500000000e+002 
2.400000000000e-002 9.984987745000e-001 2.733748936608e-005 2.831500000000e+002 
2.450000000000e-002 9.984987745000e-001 1.378069328331e-005 2.831500000000e+002 
2.500000000000e-002 9.984987745000e-001 9.988210676926e-006 2.831500000000e+002 
 ZONE T="TIME=2.592000000000e+004"
0.000000000000e+000 9.984987745000e-001 1.000008434528e+000 2.831500000000e+002 
5.000000000000e-004 9.984987745000e-001 1.000006720973e+000 2.831500000000e+002 
1.000000000000e-003 9.984987745000e-001 1.000000472994e+000 2.831500000000e+002 
1.500000000000e-003 9.984987745000e-001 9.999858662286e-001 2.831500000000e+002 
2.000000000000e-003 9.984987745000e-001 9.999547277115e-001 2.831500000000e+002 
2.500000000000e-003 9.984987745000e-001 9.998914069143e-001 2.831500000000e+002 
3.000000000000e-003 9.984987745000e-001 9.997675596788e-001 2.831500000000e+002 
3.500000000000e-003 9.984987745000e-001 9.995340983210e-001 2.831500000000e+002 
4.000000000000e-003 9.984987745000e-001 9.991095431516e-001 2.831500000000e+002 
4.500000000000e-003 9.984987745000e-001 9.983642385956e-001 2.831500000000e+002 
5.000000000000e-003 9.984987745000e-001 9.971004846258e-001 2.831500000000e+002 
5.500000000000e-003 9.984987745000e-001 9.950296682764e-001 2.831500000000e+002 
6.000000000000e-003 9.984987745000e-001 9.917489462074e-001 2.831500000000e+002 
6.500000000000e-003 9.984987745000e-001 9.867217587849e-001 2.831500000000e+002 
7.000000000000e-003 9.984987745000e-001 9.792681160374e-001 2.831500000000e+002 
7.500000000000e-003 9.984987745000e-001 9.685715742366e-001 2.831500000000e+002 
8.000000000000e-003 9.984987745000e-001 9.537095583940e-001 2.831500000000e+002 
8.500000000000e-003 9.984987745000e-001 9.337116086968e-001 2.831500000000e+002 
9.000000000000e-003 9.984987745000e-001 9.076460396410e-001 2.831500000000e+002 
9.500000000000e-003 9.984987745000e-001 8.747297475110e-001 2.831500000000e+002 
1.000000000000e-002 9.984987745000e-001 8.344494382087e-001 2.831500000000e+002 
1.050000000000e-002 9.984987745000e-001 7.866769563790e-001 2.831500000000e+002 
1.100000000000e-002 9.984987745000e-001 7.317582525556e-001 2.831500000000e+002 
1.150000000000e-002 9.984987745000e-001 6.705564876305e-001 2.831500000000e+002 
1.200000000000e-002 9.984987745000e-001 6.044350042111e-001 2.831500000000e+002 
1.250000000000e-002 9.984987745000e-001 5.351753595492e-001 2.831500000000e+002 
1.300000000000e-002 9.984987745000e-001 4.648371581482e-001 2.831500000000e+002 
1.350000000000e-002 9.984987745000e-001 3.955775069898e-001 2.831500000000e+002 
1.400000000000e-002 9.984987745000e-001 3.294560250807e-001 2.831500000000e+002 
1.450000000000e-002 9.984987745000e-001 2.682542645883e-001 2.831500000000e+002 
1.500000000000e-002 9.984987745000e-001 2.133355627248e-001 2.831500000000e+002 
1.550000000000e-002 9.984987745000e-001 1.655630727822e-001 2.831500000000e+002 
1.600000000000e-002 9.984987745000e-001 1.252827620702e-001 2.831500000000e+002 
1.650000000000e-002 9.984987745000e-001 9.236647731208e-002 2.831500000000e+002 
1.700000000000e-002 9.984987745000e-001 6.630090780943e-002 2.831500000000e+002 
1.750000000000e-002 9.984987745000e-001 4.630295404984e-002 2.831500000000e+002 
1.800000000000e-002 9.984987745000e-001 3.144093780972e-002 2.831500000000e+002 
1.850000000000e-002 9.984987745000e-001 2.074439712725e-002 2.831500000000e+002 
1.900000000000e-002 9.984987745000e-001 1.329075547347e-002 2.831500000000e+002 
1.950000000000e-002 9.984987745000e-001 8.263567088720e-003 2.831500000000e+002 
2.000000000000e-002 9.984987745000e-001 4.982844329380e-003 2.831500000000e+002 
2.050000000000e-002 9.984987745000e-001 2.912028644408e-003 2.831500000000e+002 
2.100000000000e-002 9.984987745000e-001 1.648275495595e-003 2.831500000000e+002 
2.150000000000e-002 9.984987745000e-001 9.029731350244e-004 2.831500000000e+002 
2.200000000000e-002 9.984987745000e-001 4.784253132471e-004 2.831500000000e+002 
2.250000000000e-002 9.984987745000e-001 2.449860534983e-004 2.831500000000e+002 
2.300000000000e-002 9.984987745000e-001 1.212011475720e-004 2.831500000000e+002 
2.350000000000e-002 9.984987745000e-001 5.804774628258e-005 2.831500000000e+002 
2.400000000000e-002 9.984987745000e-001 2.733796646483e-005 2.831500000000e+002 
2.450000000000e-002 9.984987745000e-001 1.378012499261e-005 2.831500000000e+002 
2.500000000000e-002 9.984987745000e-001 9.987430047564e-006 2.831500000000e+002 
 ZONE T="TIME=3.456000000000e+004"
0.000000000000e+000 9.984987745000e-001 9.999968665827e-001 2.831500000000e+002 
5.000000000000e-004 9.984987745000e-001 9.999951529968e-001 2.831500000000e+002 
1.000000000000e-003 9.984987745000e-001 9.999889049155e-001 2.831500000000e+002 
1.500000000000e-003 9.984987745000e-001 9.999742979416e-001 2.831500000000e+002 
2.000000000000e-003 9.984987745000e-001 9.999431590549e-001 2.831500000000e+002 
2.500000000000e-003 9.984987745000e-001 9.998798376636e-001 2.831500000000e+002 
3.000000000000e-003 9.984987745000e-001 9.997559895690e-001 2.831500000000e+002 
3.500000000000e-003 9.984987745000e-001 9.995225271392e-001 2.831500000000e+002 
4.000000000000e-003 9.984987745000e-001 9.990979709547e-001 2.831500000000e+002 
4.500000000000e-003 9.984987745000e-001 9.983526661359e-001 2.831500000000e+002 
5.000000000000e-003 9.984987745000e-001 9.970889140752e-001 2.831500000000e+002 
5.500000000000e-003 9.984987745000e-001 9.950181043440e-001 2.831500000000e+002 
6.000000000000e-003 9.984987745000e-001 9.917373977115e-001 2.831500000000e+002 
6.500000000000e-003 9.984987745000e-001 9.867102406759e-001 2.831500000000e+002 
7.000000000000e-003 9.984987745000e-001 9.792566517671e-001 2.831500000000e+002 
7.500000000000e-003 9.984987745000e-001 9.685601982297e-001 2.831500000000e+002 
8.000000000000e-003 9.984987745000e-001 9.536983182486e-001 2.831500000000e+002 
8.500000000000e-003 9.984987745000e-001 9.337005666264e-001 2.831500000000e+002 
9.000000000000e-003 9.984987745000e-001 9.076352726376e-001 2.831500000000e+002 
9.500000000000e-003 9.984987745000e-001 8.747193457751e-001 2.831500000000e+002 
1.000000000000e-002 9.984987745000e-001 8.344395015813e-001 2.831500000000e+002 
1.050000000000e-002 9.984987745000e-001 7.866675888032e-001 2.831500000000e+002 
1.100000000000e-002 9.984987745000e-001 7.317495549539e-001 2.831500000000e+002 
1.150000000000e-002 9.984987745000e-001 6.705485499295e-001 2.831500000000e+002 
1.200000000000e-002 9.984987745000e-001 6.044278974985e-001 2.831500000000e+002 
1.250000000000e-002 9.984987745000e-001 5.351691294490e-001 2.831500000000e+002 
1.300000000000e-002 9.984987745000e-001 4.648318203878e-001 2.831500000000e+002 
1.350000000000e-002 9.984987745000e-001 3.955730458418e-001 2.831500000000e+002 
1.400000000000e-002 9.984987745000e-001 3.294523949212e-001 2.831500000000e+002 
1.450000000000e-002 9.984987745000e-001 2.682513943293e-001 2.831500000000e+002 
1.500000000000e-002 9.984987745000e-001 2.133333624400e-001 2.831500000000e+002 
1.550000000000e-002 9.984987745000e-001 1.655614415491e-001 2.831500000000e+002 
1.600000000000e-002 9.984987745000e-001 1.252815959455e-001 2.831500000000e+002 
1.650000000000e-002 9.984987745000e-001 9.236567645489e-002 2.831500000000e+002 
1.700000000000e-002 9.984987745000e-001 6.630038201915e-002 2.831500000000e+002 
1.750000000000e-002 9.984987745000e-001 4.630262633461e-002 2.831500000000e+002 
1.800000000000e-002 9.984987745000e-001 3.144074595605e-002 2.831500000000e+002 
1.850000000000e-002 9.984987745000e-001 2.074429353705e-002 2.831500000000e+002 
1.900000000000e-002 9.984987745000e-001 1.329070572184e-002 2.831500000000e+002 
1.950000000000e-002 9.984987745000e-001 8.263547724163e-003 2.831500000000e+002 
2.000000000000e-002 9.984987745000e-001 4.982840401151e-003 2.831500000000e+002 
2.050000000000e-002 9.984987745000e-001 2.912031334440e-003 2.831500000000e+002 
2.100000000000e-002 9.984987745000e-001 1.648280094812e-003 2.831500000000e+002 
2.150000000000e-002 9.984987745000e-001 9.029774713566e-004 2.831500000000e+002 
2.200000000000e-002 9.984987745000e-001 4.784286346236e-004 2.831500000000e+002 
2.250000000000e-002 9.984987745000e-001 2.449883031601e-004 2.831500000000e+002 
2.300000000000e-002 9.984987745000e-001 1.212025396700e-004 2.831500000000e+002 
2.350000000000e-002 9.984987745000e-001 5.804854800887e-005 2.831500000000e+002 
2.400000000000e-002 9.984987745000e-001 2.733840787549e-005 2.831500000000e+002 
2.450000000000e-002 9.984987745000e-001 1.378037914211e-005 2.831500000000e+002 
2.500000000000e-002 9.984987745000e-001 9.987626940072e-006 2.831500000000e+002 
 ZONE T="TIME=4.320000000000e+004"
0.000000000000e+000 9.984987745000e-001 9.999958874974e-001 2.831500000000e+002 
5.000000000000e-004 9.984987745000e-001 9.999941739105e-001 2.831500000000e+002 
1.000000000000e-003 9.984987745000e-001 9.999879258261e-001 2.831500000000e+002 
1.500000000000e-003 9.984987745000e-001 9.999733188485e-001 2.831500000000e+002 
2.000000000000e-003 9.984987745000e-001 9.999421799613e-001 2.831500000000e+002 
2.500000000000e-003 9.984987745000e-001 9.998788585830e-001 2.831500000000e+002 
3.000000000000e-003 9.984987745000e-001 9.997550105377e-001 2.831500000000e+002 
3.500000000000e-003 9.984987745000e-001 9.995215482385e-001 2.831500000000e+002 
4.000000000000e-003 9.984987745000e-001 9.990969923477e-001 2.831500000000e+002 
4.500000000000e-003 9.984987745000e-001 9.983516881226e-001 2.831500000000e+002 
5.000000000000e-003 9.984987745000e-001 9.970879371711e-001 2.831500000000e+002 
5.500000000000e-003 9.984987745000e-001 9.950171293826e-001 2.831500000000e+002 
6.000000000000e-003 9.984987745000e-001 9.917364259678e-001 2.831500000000e+002 
6.500000000000e-003 9.984987745000e-001 9.867092740037e-001 2.831500000000e+002 
7.000000000000e-003 9.984987745000e-001 9.792556927355e-001 2.831500000000e+002 
7.500000000000e-003 9.984987745000e-001 9.685592502367e-001 2.831500000000e+002 
8.000000000000e-003 9.984987745000e-001 9.536973855907e-001 2.831500000000e+002 
8.500000000000e-003 9.984987745000e-001 9.336996544973e-001 2.831500000000e+002 
9.000000000000e-003 9.984987745000e-001 9.076343870395e-001 2.831500000000e+002 
9.500000000000e-003 9.984987745000e-001 8.747184933299e-001 2.831500000000e+002 
1.000000000000e-002 9.984987745000e-001 8.344386892449e-001 2.831500000000e+002 
1.050000000000e-002 9.984987745000e-001 7.866668234997e-001 2.831500000000e+002 
1.100000000000e-002 9.984987745000e-001 7.317488431586e-001 2.831500000000e+002 
1.150000000000e-002 9.984987745000e-001 6.705478972404e-001 2.831500000000e+002 
1.200000000000e-002 9.984987745000e-001 6.044273082415e-001 2.831500000000e+002 
1.250000000000e-002 9.984987745000e-001 5.351686063582e-001 2.831500000000e+002 
1.300000000000e-002 9.984987745000e-001 4.648313643987e-001 2.831500000000e+002 
1.350000000000e-002 9.984987745000e-001 3.955726560190e-001 2.831500000000e+002 
1.400000000000e-002 9.984987745000e-001 3.294520685304e-001 2.831500000000e+002 
1.450000000000e-002 9.984987745000e-001 2.682511270448e-001 2.831500000000e+002 
1.500000000000e-002 9.984987745000e-001 2.133331486636e-001 2.831500000000e+002 
1.550000000000e-002 9.984987745000e-001 1.655612748056e-001 2.831500000000e+002 
1.600000000000e-002 9.984987745000e-001 1.252814693109e-001 2.831500000000e+002 
1.650000000000e-002 9.984987745000e-001 9.236558297312e-002 2.831500000000e+002 
1.700000000000e-002 9.984987745000e-001 6.630031506841e-002 2.831500000000e+002 
1.750000000000e-002 9.984987745000e-001 4.630257991274e-002 2.831500000000e+002 
1.800000000000e-002 9.984987745000e-001 3.144071486914e-002 2.831500000000e+002 
1.850000000000e-002 9.984987745000e-001 2.074427348880e-002 2.831500000000e+002 
1.900000000000e-002 9.984987745000e-001 1.329069331412e-002 2.831500000000e+002 
1.950000000000e-002 9.984987745000e-001 8.263540388085e-003 2.831500000000e+002 
2.000000000000e-002 9.984987745000e-001 4.982836282724e-003 2.831500000000e+002 
2.050000000000e-002 9.984987745000e-001 2.912029158608e-003 2.831500000000e+002 
2.100000000000e-002 9.984987745000e-001 1.648279028251e-003 2.831500000000e+002 
2.150000000000e-002 9.984987745000e-001 9.029769985493e-004 2.831500000000e+002 
2.200000000000e-002 9.984987745000e-001 4.784284554487e-004 2.831500000000e+002 
2.250000000000e-002 9.984987745000e-001 2.449882546649e-004 2.831500000000e+002 
2.300000000000e-002 9.984987745000e-001 1.212025405894e-004 2.831500000000e+002 
2.350000000000e-002 9.984987745000e-001 5.804856223210e-005 2.831500000000e+002 
2.400000000000e-002 9.984987745000e-001 2.733842219598e-005 2.831500000000e+002 
2.450000000000e-002 9.984987745000e-001 1.378039082608e-005 2.831500000000e+002 
2.500000000000e-002 9.984987745000e-001 9.987637396200e-006 2.831500000000e+002 
 ZONE T="TIME=5.184000000000e+004"
0.000000000000e+000 9.984987745000e-001 9.999959193001e-001 2.831500000000e+002 
5.000000000000e-004 9.984987745000e-001 9.999942057131e-001 2.831500000000e+002 
1.000000000000e-003 9.984987745000e-001 9.999879576288e-001 2.831500000000e+002 
1.500000000000e-003 9.984987745000e-001 9.999733506509e-001 2.831500000000e+002 
2.000000000000e-003 9.984987745000e-001 9.999422117627e-001 2.831500000000e+002 
2.500000000000e-003 9.984987745000e-001 9.998788903819e-001 2.831500000000e+002 
3.000000000000e-003 9.984987745000e-001 9.997550423305e-001 2.831500000000e+002 
3.500000000000e-003 9.984987745000e-001 9.995215800189e-001 2.831500000000e+002 
4.000000000000e-003 9.984987745000e-001 9.990970241041e-001 2.831500000000e+002 
4.500000000000e-003 9.984987745000e-001 9.983517198361e-001 2.831500000000e+002 
5.000000000000e-003 9.984987745000e-001 9.970879688121e-001 2.831500000000e+002 
5.500000000000e-003 9.984987745000e-001 9.950171609069e-001 2.831500000000e+002 
6.000000000000e-003 9.984987745000e-001 9.917364573136e-001 2.831500000000e+002 
6.500000000000e-003 9.984987745000e-001 9.867093050885e-001 2.831500000000e+002 
7.000000000000e-003 9.984987745000e-001 9.792557234538e-001 2.831500000000e+002 
7.500000000000e-003 9.984987745000e-001 9.685592804605e-001 2.831500000000e+002 
8.000000000000e-003 9.984987745000e-001 9.536974151713e-001 2.831500000000e+002 
8.500000000000e-003 9.984987745000e-001 9.336996832701e-001 2.831500000000e+002 
9.000000000000e-003 9.984987745000e-001 9.076344148302e-001 2.831500000000e+002 
9.500000000000e-003 9.984987745000e-001 8.747185199626e-001 2.831500000000e+002 
1.000000000000e-002 9.984987745000e-001 8.344387145504e-001 2.831500000000e+002 
1.050000000000e-002 9.984987745000e-001 7.866668473233e-001 2.831500000000e+002 
1.100000000000e-002 9.984987745000e-001 7.317488653667e-001 2.831500000000e+002 
1.150000000000e-002 9.984987745000e-001 6.705479177253e-001 2.831500000000e+002 
1.200000000000e-002 9.984987745000e-001 6.044273269247e-001 2.831500000000e+002 
1.250000000000e-002 9.984987745000e-001 5.351686231921e-001 2.831500000000e+002 
1.300000000000e-002 9.984987745000e-001 4.648313793673e-001 2.831500000000e+002 
1.350000000000e-002 9.984987745000e-001 3.955726691382e-001 2.831500000000e+002 
1.400000000000e-002 9.984987745000e-001 3.294520798479e-001 2.831500000000e+002 
1.450000000000e-002 9.984987745000e-001 2.682511366391e-001 2.831500000000e+002 
1.500000000000e-002 9.984987745000e-001 2.133331566425e-001 2.831500000000e+002 
1.550000000000e-002 9.984987745000e-001 1.655612813025e-001 2.831500000000e+002 
1.600000000000e-002 9.984987745000e-001 1.252814744806e-001 2.831500000000e+002 
1.650000000000e-002 9.984987745000e-001 9.236558698487e-002 2.831500000000e+002 
1.700000000000e-002 9.984987745000e-001 6.630031809808e-002 2.831500000000e+002 
1.750000000000e-002 9.984987745000e-001 4.630258213455e-002 2.831500000000e+002 
1.800000000000e-002 9.984987745000e-001 3.144071644778e-002 2.831500000000e+002 
1.850000000000e-002 9.984987745000e-001 2.074427457291e-002 2.831500000000e+002 
1.900000000000e-002 9.984987745000e-001 1.329069403177e-002 2.831500000000e+002 
1.950000000000e-002 9.984987745000e-001 8.263540844643e-003 2.831500000000e+002 
2.000000000000e-002 9.984987745000e-001 4.982836560856e-003 2.831500000000e+002 
2.050000000000e-002 9.984987745000e-001 2.912029320129e-003 2.831500000000e+002 
2.100000000000e-002 9.984987745000e-001 1.648279117140e-003 2.831500000000e+002 
2.150000000000e-002 9.984987745000e-001 9.029770445152e-004 2.831500000000e+002 
2.200000000000e-002 9.984987745000e-001 4.784284774929e-004 2.831500000000e+002 
2.250000000000e-002 9.984987745000e-001 2.449882642453e-004 2.831500000000e+002 
2.300000000000e-002 9.984987745000e-001 1.212025441797e-004 2.831500000000e+002 
2.350000000000e-002 9.984987745000e-001 5.804856322415e-005 2.831500000000e+002 
2.400000000000e-002 9.984987745000e-001 2.733842220791e-005 2.831500000000e+002 
2.450000000000e-002 9.984987745000e-001 1.378039053651e-005 2.831500000000e+002 
2.500000000000e-002 9.984987745000e-001 9.987637047646e-006 2.831500000000e+002 
