TITLE = "Profiles along polylines"
VARIABLES = "distance" "head" "Na" "Cl" "Ca" "C(4)" "Calcite" 
ZONE T="TIME=3.300000000000e+002"
0.000000000000e+000 2.227406118099e+005 1.000000000000e-003 1.000000000000e-003 0.000000000000e+000 1.000000000000e+000 0.000000000000e+000 
5.000000000000e-003 2.197908894701e+005 1.000074844907e-003 1.000074844907e-003 4.157353495154e-003 1.004232198402e+000 0.000000000000e+000 
1.000000000000e-002 2.168411671303e+005 1.000288516587e-003 1.000288516587e-003 1.602586709461e-002 1.016314383681e+000 0.000000000000e+000 
1.500000000000e-002 2.123294891760e+005 1.000677044248e-003 1.000677044248e-003 3.760661020920e-002 1.038283654457e+000 8.584828778436e+000 
2.000000000000e-002 2.037893137584e+005 1.000677056230e-003 1.000677056230e-003 3.760661040812e-002 1.038283666636e+000 1.162229431222e+001 
2.500000000000e-002 1.928050082774e+005 1.000677049681e-003 1.000677049681e-003 3.760661029937e-002 1.038283659979e+000 1.276538325441e+001 
3.000000000000e-002 1.806735480799e+005 1.000677046913e-003 1.000677046913e-003 3.760661025341e-002 1.038283657165e+000 1.320722467344e+001 
3.500000000000e-002 1.680577791319e+005 1.000677045812e-003 1.000677045812e-003 3.760661023513e-002 1.038283656045e+000 1.337996794392e+001 
4.000000000000e-002 1.552458845592e+005 1.000677045359e-003 1.000677045359e-003 3.760661022758e-002 1.038283655583e+000 1.344787328228e+001 
4.500000000000e-002 1.423557261880e+005 1.000677045153e-003 1.000677045153e-003 3.760661022417e-002 1.038283655374e+000 1.347472987908e+001 
5.000000000000e-002 1.294343291970e+005 1.000677045048e-003 1.000677045048e-003 3.760661022242e-002 1.038283655267e+000 1.348549704380e+001 
5.500000000000e-002 1.165003024912e+005 1.000677044980e-003 1.000677044980e-003 3.760661022129e-002 1.038283655198e+000 1.348990766780e+001 
6.000000000000e-002 1.035610100672e+005 1.000677044928e-003 1.000677044928e-003 3.760661022040e-002 1.038283655143e+000 1.349181841926e+001 
6.500000000000e-002 9.061937289274e+004 1.000677044881e-003 1.000677044881e-003 3.760661021963e-002 1.038283655096e+000 1.349272035129e+001 
7.000000000000e-002 7.767657253033e+004 1.000677044838e-003 1.000677044838e-003 3.760661021887e-002 1.038283655050e+000 1.349321264907e+001 
7.500000000000e-002 6.473307902084e+004 1.000677044794e-003 1.000677044794e-003 3.760661021816e-002 1.038283655006e+000 1.349355044276e+001 
8.000000000000e-002 5.178906011639e+004 1.000677044752e-003 1.000677044752e-003 3.760661021746e-002 1.038283654963e+000 1.349384134371e+001 
8.500000000000e-002 3.884447565233e+004 1.000677044713e-003 1.000677044712e-003 3.760661021678e-002 1.038283654922e+000 1.349422682206e+001 
9.000000000000e-002 2.589895373803e+004 1.000677044676e-003 1.000677044676e-003 3.760661021617e-002 1.038283654885e+000 1.349496215615e+001 
9.500000000000e-002 1.295158602644e+004 1.000677044648e-003 1.000677044648e-003 3.760661021568e-002 1.038283654855e+000 1.349643323705e+001 
1.000000000000e-001 2.000000000000e+000 1.000677044636e-003 1.000677044636e-003 3.760661021548e-002 1.038283654842e+000 1.349761332912e+001 
TITLE = "Profiles along polylines"
VARIABLES = "distance" "head" "Na" "Cl" "Ca" "C(4)" "Calcite" 
ZONE T="TIME=9.900000000000e+005"
0.00000000E+00	1.76513857E+05	1.00000000E-03	1.00000000E-03	0.00000000E+00	1.00000000E+00	0.00000000E+00
5.00000000E-03	1.73564135E+05	1.00000298E-03	1.00000298E-03	1.65714799E-04	1.00016870E+00	0.00000000E+00
1.00000000E-02	1.70614412E+05	1.00000952E-03	1.00000952E-03	5.28731694E-04	1.00053825E+00	0.00000000E+00
1.50000000E-02	1.67664690E+05	1.00002384E-03	1.00002384E-03	1.32397981E-03	1.00134782E+00	0.00000000E+00
2.00000000E-02	1.64714968E+05	1.00005520E-03	1.00005520E-03	3.06612010E-03	1.00312132E+00	0.00000000E+00
2.50000000E-02	1.61765245E+05	1.00012391E-03	1.00012391E-03	6.88262394E-03	1.00700654E+00	0.00000000E+00
3.00000000E-02	1.58815523E+05	1.00027444E-03	1.00027444E-03	1.52434505E-02	1.01551789E+00	0.00000000E+00
3.50000000E-02	1.55278486E+05	1.00067706E-03	1.00067706E-03	3.76066105E-02	1.03828367E+00	3.74096392E+00
4.00000000E-02	1.49387282E+05	1.00067707E-03	1.00067707E-03	3.76066107E-02	1.03828369E+00	9.88830956E+00
4.50000000E-02	1.39897187E+05	1.00067707E-03	1.00067707E-03	3.76066107E-02	1.03828369E+00	1.21097281E+01
5.00000000E-02	1.28442912E+05	1.00067707E-03	1.00067707E-03	3.76066107E-02	1.03828369E+00	1.29546775E+01
5.50000000E-02	1.16107080E+05	1.00067707E-03	1.00067707E-03	3.76066107E-02	1.03828369E+00	1.32823697E+01
6.00000000E-02	1.03406098E+05	1.00067707E-03	1.00067707E-03	3.76066107E-02	1.03828369E+00	1.34105055E+01
6.50000000E-02	9.05585263E+04	1.00067707E-03	1.00067707E-03	3.76066107E-02	1.03828369E+00	1.34608358E+01
7.00000000E-02	7.76527193E+04	1.00067707E-03	1.00067707E-03	3.76066107E-02	1.03828369E+00	1.34807060E+01
7.50000000E-02	6.47237535E+04	1.00067707E-03	1.00067707E-03	3.76066107E-02	1.03828369E+00	1.34886441E+01
8.00000000E-02	5.17854366E+04	1.00067707E-03	1.00067707E-03	3.76066107E-02	1.03828369E+00	1.34919165E+01
8.50000000E-02	3.88430897E+04	1.00067707E-03	1.00067707E-03	3.76066107E-02	1.03828369E+00	1.34934716E+01
9.00000000E-02	2.58984463E+04	1.00067707E-03	1.00067707E-03	3.76066107E-02	1.03828369E+00	1.34946654E+01
9.50000000E-02	1.29514263E+04	1.00067707E-03	1.00067707E-03	3.76066107E-02	1.03828369E+00	1.34963136E+01
1.00000000E-01	2.00000000E+00	1.00067707E-03	1.00067707E-03	3.76066107E-02	1.03828369E+00	1.34975418E+01
