VARIABLES = "distance [m]","porosity theoretical","permeability theoretical"
ZONE T="0.000000000000e+000s", I=20, F=POINT, C=BLACK
2.5000000E-03	2.9969308E-01	5.0801512E-12
7.5000000E-03	2.9969308E-01	5.0801512E-12
1.2500000E-02	2.9969308E-01	5.0801512E-12
1.7500000E-02	2.9969308E-01	5.0801512E-12
2.2500000E-02	2.9969308E-01	5.0801512E-12
2.7500000E-02	2.9969308E-01	5.0801512E-12
3.2500000E-02	2.9969308E-01	5.0801512E-12
3.7500000E-02	2.9969308E-01	5.0801512E-12
4.2500000E-02	2.7107259E-01	3.4698574E-12
4.7500000E-02	2.2882039E-01	1.8646463E-12
5.2500000E-02	2.1048491E-01	1.3847309E-12
5.7500000E-02	2.0402083E-01	1.2406334E-12
6.2500000E-02	2.0158150E-01	1.1893624E-12
6.7500000E-02	2.0063725E-01	1.1699580E-12
7.2500000E-02	2.0026763E-01	1.1624286E-12
7.7500000E-02	2.0012170E-01	1.1594661E-12
8.2500000E-02	2.0006285E-01	1.1582732E-12
8.7500000E-02	2.0003660E-01	1.1577412E-12
9.2500000E-02	2.0001981E-01	1.1574012E-12
9.7500000E-02	2.0000696E-01	1.1571410E-12



