TITLE = "Time curces in points"
VARIABLES = Time HEAD 
ZONE T="Analytical"
60	0.024721549
120	0.03496155
180	0.042818979
240	0.049443098
300	0.055279064
360	0.060555181
420	0.06540707
480	0.0699231
540	0.074164647
600	0.078176402
660	0.081992102
720	0.085637958
780	0.089134812
840	0.092499566
900	0.095746147
960	0.098886196
1020	0.101929557
1080	0.104884649
1140	0.107758734
1200	0.110558128
1260	0.113288369
1320	0.115954343
1380	0.118560384
1440	0.121110361
1500	0.123607745
1560	0.12605566
1620	0.128456936
1680	0.130814141
1740	0.133129615
1800	0.1354055
1860	0.137643759
1920	0.139846199
1980	0.142014487
2040	0.144150163
2100	0.146254656
2160	0.148329294
2220	0.150375312
2280	0.152393862
2340	0.154386024
2400	0.156352804
2460	0.158295149
2520	0.160213948
2580	0.162110037
2640	0.163984204
2700	0.165837192
2760	0.167669703
2820	0.169482401
2880	0.171275915
2940	0.173050843
3000	0.174807749
3060	0.176547172
3120	0.178269625
3180	0.179975593
3240	0.181665542
3300	0.183339914
3360	0.184999132
3420	0.186643601
3480	0.188273707
3540	0.18988982
3600	0.191492295