VARIABLES  = "X","Y","Z"
ZONE T="0.000000000000e+000s"
0	0	5
1	0	4.986072346
2	0	4.971900656
3	0	4.957482839
4	0	4.94281674
5	0	4.927900143
6	0	4.912730766
7	0	4.897306259
8	0	4.881624205
9	0	4.865682113
10	0	4.849477419
11	0	4.833007481
12	0	4.816269578
13	0	4.799260907
14	0	4.781978578
15	0	4.764419613
16	0	4.746580943
17	0	4.728459401
18	0	4.710051722
19	0	4.691354539
20	0	4.672364376
21	0	4.653077646
22	0	4.633490645
23	0	4.613599549
24	0	4.593400408
25	0	4.572889139
26	0	4.552061523
27	0	4.530913198
28	0	4.509439651
29	0	4.487636215
30	0	4.465498056
31	0	4.443020171
32	0	4.420197377
33	0	4.397024305
34	0	4.373495385
35	0	4.349604843
36	0	4.325346687
37	0	4.300714697
38	0	4.27570241
39	0	4.250303115
40	0	4.224509829
41	0	4.198315292
42	0	4.171711944
43	0	4.144691915
44	0	4.117246999
45	0	4.089368643
46	0	4.06104792
47	0	4.03227551
48	0	4.003041672
49	0	3.973336222
50	0	3.943148501
51	0	3.912467346
52	0	3.881281055
53	0	3.849577352
54	0	3.817343345
55	0	3.784565484
56	0	3.751229512
57	0	3.717320415
58	0	3.682822361
59	0	3.647718642
60	0	3.611991597
61	0	3.575622543
62	0	3.538591684
63	0	3.500878019
64	0	3.462459237
65	0	3.423311597
66	0	3.383409801
67	0	3.342726842
68	0	3.301233838
69	0	3.258899851
70	0	3.215691665
71	0	3.171573552
72	0	3.126506992
73	0	3.080450358
74	0	3.033358553
75	0	2.985182587
76	0	2.935869089
77	0	2.885359735
78	0	2.833590577
79	0	2.780491248
80	0	2.725984018
81	0	2.669982662
82	0	2.612391094
83	0	2.553101703
84	0	2.491993308
85	0	2.428928622
86	0	2.36375107
87	0	2.296280744
88	0	2.226309199
89	0	2.153592652
90	0	2.077842929
91	0	1.998715194
92	0	1.915790927
93	0	1.828553689
94	0	1.736353528
95	0	1.638352776
96	0	1.533439705
97	0	1.420083131
98	0	1.296069495
99	0	1.157979894
100	0	1
VARIABLES  = "X","Y","Z"
ZONE T="1.000000000000e+000s"
0	2	5
1	2	4.986072346
2	2	4.971900656
3	2	4.957482839
4	2	4.94281674
5	2	4.927900143
6	2	4.912730766
7	2	4.897306259
8	2	4.881624205
9	2	4.865682113
10	2	4.849477419
11	2	4.833007481
12	2	4.816269578
13	2	4.799260907
14	2	4.781978578
15	2	4.764419613
16	2	4.746580943
17	2	4.728459401
18	2	4.710051722
19	2	4.691354539
20	2	4.672364376
21	2	4.653077646
22	2	4.633490645
23	2	4.613599549
24	2	4.593400408
25	2	4.572889139
26	2	4.552061523
27	2	4.530913198
28	2	4.509439651
29	2	4.487636215
30	2	4.465498056
31	2	4.443020171
32	2	4.420197377
33	2	4.397024305
34	2	4.373495385
35	2	4.349604843
36	2	4.325346687
37	2	4.300714697
38	2	4.27570241
39	2	4.250303115
40	2	4.224509829
41	2	4.198315292
42	2	4.171711944
43	2	4.144691915
44	2	4.117246999
45	2	4.089368643
46	2	4.06104792
47	2	4.03227551
48	2	4.003041672
49	2	3.973336222
50	2	3.943148501
51	2	3.912467346
52	2	3.881281055
53	2	3.849577352
54	2	3.817343345
55	2	3.784565484
56	2	3.751229512
57	2	3.717320415
58	2	3.682822361
59	2	3.647718642
60	2	3.611991597
61	2	3.575622543
62	2	3.538591684
63	2	3.500878019
64	2	3.462459237
65	2	3.423311597
66	2	3.383409801
67	2	3.342726842
68	2	3.301233838
69	2	3.258899851
70	2	3.215691665
71	2	3.171573552
72	2	3.126506992
73	2	3.080450358
74	2	3.033358553
75	2	2.985182587
76	2	2.935869089
77	2	2.885359735
78	2	2.833590577
79	2	2.780491248
80	2	2.725984018
81	2	2.669982662
82	2	2.612391094
83	2	2.553101703
84	2	2.491993308
85	2	2.428928622
86	2	2.36375107
87	2	2.296280744
88	2	2.226309199
89	2	2.153592652
90	2	2.077842929
91	2	1.998715194
92	2	1.915790927
93	2	1.828553689
94	2	1.736353528
95	2	1.638352776
96	2	1.533439705
97	2	1.420083131
98	2	1.296069495
99	2	1.157979894
100	2	1
