TITLE = "Profiles along polylines"
VARIABLES = "distance" "head" "Na" "Cl" "Ca" "C(4)" "Calcite" 
ZONE T="TIME=3.300000000000e+002"
0.000000000000e+000 2.590932013829e+005 1.000665127757e+000 1.000665127757e+000 3.760641232896e+001 1.038271540086e+003 3.365604646028e+003 
5.000000000000e-003 2.461386413137e+005 1.000441166846e+000 1.000441166846e+000 2.492885704561e+001 4.174941510236e+002 3.368790179460e+003 
1.000000000000e-002 2.331840812446e+005 1.000292617105e+000 1.000292617105e+000 1.653729722391e+001 1.705539803494e+002 3.370894239423e+003 
1.500000000000e-002 2.202295211755e+005 1.000192958626e+000 1.000192958626e+000 1.092273343072e+001 7.135165639677e+001 3.372300222678e+003 
2.000000000000e-002 2.072749611063e+005 1.000124843791e+000 1.000124843791e+000 7.098719790397e+000 3.080894264427e+001 3.373257107788e+003 
2.500000000000e-002 1.943204010372e+005 1.000077235464e+000 1.000077235464e+000 4.436076264424e+000 1.373933976398e+001 3.373923098563e+003 
3.000000000000e-002 1.813658409680e+005 1.000043481545e+000 1.000043481545e+000 2.554502439629e+000 6.204907211804e+000 3.374393616913e+003 
3.500000000000e-002 1.684112808989e+005 1.000020573435e+000 1.000020573435e+000 1.281225813509e+000 2.713583341837e+000 3.374711986618e+003 
4.000000000000e-002 1.554567208297e+005 1.000007590816e+000 1.000007590816e+000 5.638211473226e-001 1.125859764879e+000 3.374891360413e+003 
4.500000000000e-002 1.425021607606e+005 1.000001821617e+000 1.000001821617e+000 2.531330314074e-001 4.736713257741e-001 3.374969042533e+003 
5.000000000000e-002 1.295476006914e+005 1.000000234161e+000 1.000000234161e+000 1.541836571354e-001 2.407210251214e-001 3.374993784103e+003 
5.500000000000e-002 1.165930406223e+005 1.000000081160e+000 1.000000081160e+000 1.333892167578e-001 1.673457993173e-001 3.374998984408e+003 
6.000000000000e-002 1.036384805532e+005 1.000000052487e+000 1.000000052487e+000 1.299598588748e-001 1.432841564511e-001 3.374999842413e+003 
6.500000000000e-002 9.068392048401e+004 1.000000047926e+000 1.000000047926e+000 1.294271731417e-001 1.346555234906e-001 3.374999975845e+003 
7.000000000000e-002 7.772936041487e+004 1.000000047223e+000 1.000000047223e+000 1.293456122075e-001 1.313971760955e-001 3.374999996338e+003 
7.500000000000e-002 6.477480034572e+004 1.000000047116e+000 1.000000047116e+000 1.293332904657e-001 1.301383082805e-001 3.374999999460e+003 
8.000000000000e-002 5.182024027658e+004 1.000000047100e+000 1.000000047100e+000 1.293314874443e-001 1.296473713526e-001 3.374999999925e+003 
8.500000000000e-002 3.886568020743e+004 1.000000047097e+000 1.000000047097e+000 1.293312468267e-001 1.294552063509e-001 3.374999999993e+003 
9.000000000000e-002 2.591112013829e+004 1.000000047097e+000 1.000000047097e+000 1.293312242920e-001 1.293799346616e-001 3.375000000000e+003 
9.500000000000e-002 1.295656006914e+004 1.000000047097e+000 1.000000047097e+000 1.293312264171e-001 1.293508701106e-001 3.375000000000e+003 
1.000000000000e-001 2.000000000000e+000 1.000000047097e+000 1.000000047097e+000 1.293312280375e-001 1.293429727406e-001 3.375000000000e+003 
TITLE = "Profiles along polylines"
VARIABLES = "distance" "head" "Na" "Cl" "Ca" "C(4)" "Calcite" 
ZONE T="TIME=9.900000000000e+005"
0.000000000000e+000 1.568358900484e+005 1.000000000000e+000 1.000000000000e+000 0.000000000000e+000 1.000000000000e+003 0.000000000000e+000 
5.000000000000e-003 1.538861677086e+005 1.000000620778e+000 1.000000620778e+000 3.448026300523e-002 1.000035101041e+003 0.000000000000e+000 
1.000000000000e-002 1.509364453688e+005 1.000001980703e+000 1.000001980703e+000 1.100153569549e-001 1.000111996060e+003 0.000000000000e+000 
1.500000000000e-002 1.479867230290e+005 1.000004959961e+000 1.000004959961e+000 2.754940524834e-001 1.000280454013e+003 0.000000000000e+000 
2.000000000000e-002 1.450370006892e+005 1.000011486882e+000 1.000011486882e+000 6.380226778009e-001 1.000649509561e+003 0.000000000000e+000 
2.500000000000e-002 1.420872783494e+005 1.000025786085e+000 1.000025786085e+000 1.432251554543e+000 1.001458037639e+003 0.000000000000e+000 
3.000000000000e-002 1.391375560097e+005 1.000057112930e+000 1.000057112930e+000 3.172256511648e+000 1.003229369443e+003 0.000000000000e+000 
3.500000000000e-002 1.361878336699e+005 1.000125744226e+000 1.000125744226e+000 6.984283449573e+000 1.007110027676e+003 0.000000000000e+000 
4.000000000000e-002 1.332381113301e+005 1.000276102739e+000 1.000276102739e+000 1.533573071776e+001 1.015611833458e+003 0.000000000000e+000 
4.500000000000e-002 1.298063526259e+005 1.000677064340e+000 1.000677064340e+000 3.760661054283e+001 1.038283674883e+003 7.785130898255e+002 
5.000000000000e-002 1.240289538142e+005 1.000677075453e+000 1.000677075453e+000 3.760661072737e+001 1.038283686181e+003 2.536080878733e+003 
5.500000000000e-002 1.143007262197e+005 1.000677075617e+000 1.000677075617e+000 3.760661073006e+001 1.038283686345e+003 3.065834371800e+003 
6.000000000000e-002 1.026857585498e+005 1.000677075583e+000 1.000677075583e+000 3.760661072949e+001 1.038283686310e+003 3.255598284526e+003 
6.500000000000e-002 9.027423731463e+004 1.000677075550e+000 1.000677075550e+000 3.760661072895e+001 1.038283686277e+003 3.327575838985e+003 
7.000000000000e-002 7.754106191414e+004 1.000677075518e+000 1.000677075518e+000 3.760661072842e+001 1.038283686245e+003 3.355477720324e+003 
7.500000000000e-002 6.468006711643e+004 1.000677075488e+000 1.000677075488e+000 3.760661072791e+001 1.038283686214e+003 3.366404231203e+003 
8.000000000000e-002 5.176845599030e+004 1.000677075458e+000 1.000677075458e+000 3.760661072740e+001 1.038283686183e+003 3.370721979357e+003 
8.500000000000e-002 3.883659375335e+004 1.000677075429e+000 1.000677075429e+000 3.760661072690e+001 1.038283686152e+003 3.372482425124e+003 
9.000000000000e-002 2.589606735848e+004 1.000677075402e+000 1.000677075402e+000 3.760661072647e+001 1.038283686126e+003 3.373318433080e+003 
9.500000000000e-002 1.295067764096e+004 1.000677075381e+000 1.000677075381e+000 3.760661072611e+001 1.038283686103e+003 3.373938105410e+003 
1.000000000000e-001 2.000000000000e+000 1.000677075373e+000 1.000677075373e+000 3.760661072596e+001 1.038283686094e+003 3.374301591766e+003 
