VARIABLES = "distance [m]","porosity theoretical","permeability theoretical"
ZONE T="0.000000000000e+000s", I=20, F=POINT, C=BLACK
2.5000000E-03	2.9971070E-01	5.0813033E-12
7.5000000E-03	2.9971070E-01	5.0813033E-12
1.2500000E-02	2.9971070E-01	5.0813033E-12
1.7500000E-02	2.9971070E-01	5.0813033E-12
2.2500000E-02	2.9971070E-01	5.0813033E-12
2.7500000E-02	2.9971070E-01	5.0813033E-12
3.2500000E-02	2.9971070E-01	5.0813033E-12
3.7500000E-02	2.9971070E-01	5.0813033E-12
4.2500000E-02	2.7109022E-01	3.4707021E-12
4.7500000E-02	2.2883802E-01	1.8651625E-12
5.2500000E-02	2.1050253E-01	1.3851406E-12
5.7500000E-02	2.0403846E-01	1.2410099E-12
6.2500000E-02	2.0159913E-01	1.1897269E-12
6.7500000E-02	2.0065488E-01	1.1703179E-12
7.2500000E-02	2.0028525E-01	1.1627867E-12
7.7500000E-02	2.0013932E-01	1.1598235E-12
8.2500000E-02	2.0008048E-01	1.1586304E-12
8.7500000E-02	2.0005422E-01	1.1580983E-12
9.2500000E-02	2.0003744E-01	1.1577582E-12
9.7500000E-02	2.0002459E-01	1.1574979E-12




