TITLE = "NAPL component moles and emission concentrations from the Hansen and Kueper (AWR, 2007) model"
VARIABLES = "TIME " "PCE_NAPL" "TCE_NAPL" "TCM_NAPL" "PCE" "TCE" "TCM" 
ZONE T="downgradient source zone margin"
0.000000	1.221400000E+02	1.111100000E+02	3.099000000E+01	5.315660006E-01	4.478207312E+00	8.545002271E+00
630616.069944	1.209186000E+02	1.012351321E+02	1.639391533E+01	5.829292029E-01	4.519659568E+00	5.007220503E+00
1207266.191402	1.197094140E+02	9.223789020E+01	8.672489836E+00	6.239958056E-01	4.452608321E+00	2.864102073E+00
1744889.042377	1.185123199E+02	8.404027543E+01	4.587804585E+00	6.579555119E-01	4.320880590E+00	1.613724036E+00
2252207.373198	1.173271967E+02	7.657122121E+01	2.426979024E+00	6.872583899E-01	4.153734151E+00	9.006969779E-01
2734583.894156	1.161539247E+02	6.976597693E+01	1.283887984E+00	7.135379774E-01	3.968977636E+00	4.996911587E-01
3195538.426691	1.149923854E+02	6.356554670E+01	6.791852506E-01	7.378005470E-01	3.776969203E+00	2.760892279E-01
3637556.288286	1.138424616E+02	5.791617784E+01	3.592934977E-01	7.606344592E-01	3.583631778E+00	1.520941124E-01
4062521.219789	1.127040370E+02	5.276889494E+01	1.900686409E-01	7.823692803E-01	3.392361174E+00	8.359380870E-02
4471949.223458	1.115769966E+02	4.807907526E+01	1.005475704E-01	8.031814052E-01	3.205138875E+00	4.585660366E-02
4867116.653503	1.104612266E+02	4.380606190E+01	5.319033096E-02	8.231597748E-01	3.023153911E+00	2.511298268E-02
5249131.975564	1.093566144E+02	3.991281131E+01	2.813803751E-02	8.423453363E-01	2.847142511E+00	1.373188793E-02
5618977.371396	1.082630482E+02	3.636557220E+01	1.488520828E-02	8.607542033E-01	2.677571608E+00	7.497994952E-03
5977534.067765	1.071804177E+02	3.313359290E+01	7.874373807E-03	8.783909964E-01	2.514737914E+00	4.088648577E-03
6325598.760415	1.061086136E+02	3.018885479E+01	4.165595918E-03	8.952563668E-01	2.358822079E+00	2.226718123E-03
6663895.058524	1.050475274E+02	2.750582939E+01	2.203627841E-03	9.113511054E-01	2.209919237E+00	1.211237944E-03
6993082.050143	1.039970522E+02	2.506125707E+01	1.165733729E-03	9.266782622E-01	2.068057288E+00	6.581102202E-04
7313761.121516	1.029570816E+02	2.283394538E+01	6.166808665E-04	9.412441113E-01	1.933208846E+00	3.571888133E-04
7626481.649438	1.019275108E+02	2.080458535E+01	3.262282644E-04	9.550584528E-01	1.805299933E+00	1.936651366E-04
7931745.912245	1.009082357E+02	1.895558408E+01	1.725769134E-04	9.681345396E-01	1.684216973E+00	1.049018447E-04
8230013.418724	9.989915336E+01	1.727091224E+01	9.129433067E-05	9.804887986E-01	1.569812828E+00	5.676961701E-05
8521704.775344	9.890016182E+01	1.573596511E+01	4.829530582E-05	9.921404467E-01	1.461912246E+00	3.069533658E-05
8807205.169195	9.791116021E+01	1.433743594E+01	2.554853678E-05	1.003111063E+00	1.360316861E+00	1.658342313E-05
9086867.519982	9.693204860E+01	1.306320063E+01	1.351534524E-05	1.013424152E+00	1.264809804E+00	8.952458763E-06
9361015.340681	9.596272812E+01	1.190221260E+01	7.149707180E-06	1.023104720E+00	1.175159926E+00	4.829443443E-06
9629945.338101	9.500310084E+01	1.084440703E+01	3.782242471E-06	1.032178879E+00	1.091125649E+00	2.603501794E-06
9893929.779333	9.405306983E+01	9.880613614E+00	2.000831328E-06	1.040673482E+00	1.012458420E+00	1.402630629E-06
10153218.646375	9.311253913E+01	9.002477049E+00	1.058453030E-06	1.048615795E+00	9.389057865E-01	7.552159302E-07
10408041.598577	9.218141374E+01	8.202384607E+00	5.599286658E-07	1.056033214E+00	8.702140884E-01	4.064042508E-07
10658609.760380	9.125959960E+01	7.473400140E+00	2.962059742E-07	1.062953010E+00	8.061307917E-01	2.185851465E-07
10905117.350120	9.034700361E+01	6.809203948E+00	1.566949230E-07	1.069402116E+00	7.464064701E-01	1.175096513E-07
11147743.164124	8.944353357E+01	6.204037994E+00	8.289265248E-08	1.075406953E+00	6.907964677E-01	6.314387868E-08
11386651.929018	8.854909823E+01	5.652655982E+00	4.385076240E-08	1.080993276E+00	6.390622625E-01	3.391621073E-08
11621995.534003	8.766360725E+01	5.150277880E+00	2.319734386E-08	1.086186061E+00	5.909725612E-01	1.821018989E-08
11853914.153775	8.678697118E+01	4.692548481E+00	1.227154860E-08	1.091009411E+00	5.463041510E-01	9.773827347E-09
12082537.271811	8.591910147E+01	4.275499645E+00	6.491730520E-09	1.095486487E+00	5.048425367E-01	5.244077581E-09
12307984.612884	8.505991045E+01	3.895515899E+00	3.434168458E-09	1.099639460E+00	4.663823898E-01	2.812796522E-09
12530366.992884	8.420931135E+01	3.549303095E+00	1.816697869E-09	1.103489483E+00	4.307278345E-01	1.508280498E-09
12749787.093269	8.336721823E+01	3.233859849E+00	9.610452096E-10	1.107056668E+00	3.976925940E-01	8.085552226E-10
12966340.166877	8.253354605E+01	2.946451527E+00	5.083992836E-10	1.110360092E+00	3.671000193E-01	4.333408148E-10
13180114.681164	8.170821059E+01	2.684586533E+00	2.689465896E-10	1.113417796E+00	3.387830188E-01	2.321933765E-10
13391192.904454	8.089112849E+01	2.445994711E+00	1.422745279E-10	1.116246808E+00	3.125839083E-01	1.243878083E-10
13599651.440253	8.008221720E+01	2.228607667E+00	7.526416794E-11	1.118863162E+00	2.883541951E-01	6.662243132E-11
13805561.714237	7.928139503E+01	2.030540830E+00	3.981524353E-11	1.121281929E+00	2.659543105E-01	3.567666435E-11
14008990.418131	7.848858108E+01	1.850077124E+00	2.106252764E-11	1.123517249E+00	2.452533041E-01	1.910183463E-11
14209999.914294	7.770369527E+01	1.685652076E+00	1.114221668E-11	1.125582368E+00	2.261285072E-01	1.022582921E-11
14408648.604514	7.692665832E+01	1.535840254E+00	5.894306449E-12	1.127489676E+00	2.084651777E-01	5.473432221E-12
14604991.266185	7.615739173E+01	1.399342913E+00	3.118127166E-12	1.129250746E+00	1.921561305E-01	2.929297454E-12
14799079.358758	7.539581781E+01	1.274976732E+00	1.649509931E-12	1.130876379E+00	1.771013628E-01	1.567523779E-12
14990961.303126	7.464185964E+01	1.161663558E+00	8.726016829E-13	1.132376636E+00	1.632076766E-01	8.387177263E-13
15180682.736320	7.389544104E+01	1.058421059E+00	4.616120720E-13	1.133760887E+00	1.503883050E-01	4.487167789E-13
15368286.743733	7.315648663E+01	9.643542052E-01	2.441958446E-13	1.135037847E+00	1.385625442E-01	2.400419240E-13
15553814.070848	7.242492176E+01	8.786475150E-01	1.291812198E-13	1.136215615E+00	1.276553942E-01	1.283995277E-13
15737303.316307	7.170067255E+01	8.005579812E-01	6.833772122E-14	1.137301710E+00	1.175972109E-01	6.867588773E-14
15918791.107968	7.098366582E+01	7.294086312E-01	3.615110732E-14	1.138303110E+00	1.083233703E-01	3.672928123E-14
16098312.263458	7.027382916E+01	6.645826583E-01	1.912417530E-14	1.139226287E+00	9.977394657E-02	1.964221325E-14
16275899.936608	6.957109087E+01	6.055180743E-01	1.011681545E-14	1.140077238E+00	9.189340420E-02	1.050365905E-14
16451585.751016	6.887537996E+01	5.517028374E-01	5.351862405E-15	1.140861516E+00	8.463030537E-02	5.616492572E-15
16625399.921882	6.818662616E+01	5.026704135E-01	2.831170673E-15	1.141584264E+00	7.793703199E-02	3.003074795E-15
16797371.367160	6.750475990E+01	4.579957316E-01	1.497708045E-15	1.142250239E+00	7.176952283E-02	1.605629541E-15
16967527.808967	6.682971230E+01	4.172914986E-01	7.922974793E-16	1.142863842E+00	6.608702558E-02	8.584292396E-16
17135895.866119	6.616141518E+01	3.802048421E-01	4.191306162E-16	1.143429142E+00	6.085186334E-02	4.589286628E-16
17302501.138587	6.549980103E+01	3.464142510E-01	2.217228730E-16	1.143949897E+00	5.602921531E-02	2.453402745E-16
17467368.284570	6.484480302E+01	3.156267886E-01	1.172928689E-16	1.144429582E+00	5.158691108E-02	1.311525792E-16
17630521.090868	6.419635499E+01	2.875755526E-01	6.204870483E-17	1.144871406E+00	4.749523811E-02	7.010845332E-17
17791982.537122	6.355439144E+01	2.620173618E-01	3.282417598E-17	1.145278331E+00	4.372676174E-02	3.747577632E-17
17951774.854480	6.291884752E+01	2.387306475E-01	1.736420658E-17	1.145653091E+00	4.025615721E-02	2.003173852E-17
18109919.579187	6.228965905E+01	2.175135329E-01	9.185780334E-18	1.145998210E+00	3.706005296E-02	1.070718651E-17
18266437.601527	6.166676246E+01	1.981820831E-01	4.859338660E-18	1.146316017E+00	3.411688478E-02	5.722973122E-18
18421349.210561	6.105009483E+01	1.805687100E-01	2.570622348E-18	1.146608660E+00	3.140676012E-02	3.058852109E-18
18574674.134999	6.043959388E+01	1.645207202E-01	1.359876255E-18	1.146878119E+00	2.891133187E-02	1.634882129E-18
18726431.580577	5.983519794E+01	1.498989906E-01	7.193835491E-19	1.147126222E+00	2.661368126E-02	8.737884586E-19
18876640.264230	5.923684597E+01	1.365767629E-01	3.805586640E-19	1.147354653E+00	2.449820909E-02	4.670019511E-19
19025318.445354	5.864447751E+01	1.244385441E-01	2.013180548E-19	1.147564966E+00	2.255053494E-02	2.495882936E-19
19172483.954410	5.805803273E+01	1.133791059E-01	1.064985849E-19	1.147758590E+00	2.075740368E-02	1.333900390E-19
19318154.219109	5.747745240E+01	1.033025719E-01	5.633845704E-20	1.147936846E+00	1.910659893E-02	7.128805418E-20
19462346.288383	5.690267788E+01	9.412158691E-02	2.980341707E-20	1.148100949E+00	1.758686295E-02	3.809822635E-20
19605076.854350	5.633365110E+01	8.575655916E-02	1.576620510E-20	1.148252019E+00	1.618782247E-02	2.036047083E-20
19746362.272441	5.577031459E+01	7.813497074E-02	8.340426963E-21	1.148391088E+00	1.489992014E-02	1.088093785E-20
19886218.579859	5.521261144E+01	7.119074870E-02	4.412141126E-21	1.148519108E+00	1.371435110E-02	5.814878674E-21
20024661.512499	5.466048533E+01	6.486369230E-02	2.334051890E-21	1.148636953E+00	1.262300443E-02	3.107499974E-21
20161706.520496	5.411388048E+01	5.909895114E-02	1.234728915E-21	1.148745430E+00	1.161840896E-02	1.660649823E-21
20297368.782489	5.357274167E+01	5.384654962E-02	6.531797769E-22	1.148845283E+00	1.069368335E-02	8.874455774E-22
20431663.218733	5.303701425E+01	4.906095371E-02	3.455364299E-22	1.148937196E+00	9.842489861E-03	4.742445958E-22
20564604.503161	5.250664411E+01	4.470067619E-02	1.827910609E-22	1.149021799E+00	9.058991798E-03	2.534313203E-22
20696207.074476	5.198157767E+01	4.072791703E-02	9.669768234E-23	1.149099673E+00	8.337814164E-03	1.354302362E-22
20826485.146367	5.146176189E+01	3.710823564E-02	5.115371466E-23	1.149171351E+00	7.674007383E-03	9.853786336E-25
20955452.716928	5.094714428E+01	3.381025235E-02	2.706065399E-23	1.149237327E+00	7.063013843E-03	5.212718262E-25
21083123.577337	5.043767283E+01	3.080537634E-02	1.431526526E-23	1.149298053E+00	6.500637024E-03	2.757562499E-25
21209511.319882	4.993329610E+01	2.806755777E-02	7.572870174E-24	1.149353947E+00	5.983013040E-03	1.458768833E-25
21334629.345362	4.943396314E+01	2.557306201E-02	4.006098499E-24	1.149405392E+00	5.506584398E-03	7.716983783E-26
21458490.869943	4.893962351E+01	2.330026381E-02	2.119252650E-24	1.149452743E+00	5.068075810E-03	4.082335553E-26
21581108.931506	4.845022728E+01	2.122945987E-02	1.121098693E-24	1.149496325E+00	4.664471893E-03	2.159582556E-26
21702496.395525	4.796572500E+01	1.934269800E-02	5.930686371E-25	1.149536437E+00	4.292996625E-03	1.142433481E-26
21822665.960528	4.748606775E+01	1.762362153E-02	3.137372386E-25	1.149573356E+00	3.951094407E-03	6.043548812E-27
21941630.163171	4.701120708E+01	1.605732746E-02	1.659690780E-25	1.149607336E+00	3.636412614E-03	3.197077365E-27
22059401.382955	4.654109501E+01	1.463023731E-02	8.779874194E-26	1.149638610E+00	3.346785525E-03	1.691275109E-27
22175991.846624	4.607568406E+01	1.332997937E-02	4.644611622E-26	1.149667394E+00	3.080219511E-03	8.946957390E-28
22291413.632267	4.561492721E+01	1.214528146E-02	2.457030323E-26	1.149693886E+00	2.834879391E-03	4.732999740E-28
22405678.673148	4.515877794E+01	1.106587322E-02	1.299785321E-26	1.149718269E+00	2.609075875E-03	2.503788223E-28
22518798.761292	4.470719016E+01	1.008239706E-02	6.875950468E-27	1.149740710E+00	2.401253980E-03	1.324520560E-28
22630785.550847	4.426011826E+01	9.186327052E-03	3.637423356E-27	1.149761363E+00	2.209982380E-03	7.006801521E-29
22741650.561230	4.381751708E+01	8.369894996E-03	1.924221056E-27	1.149780372E+00	2.033943586E-03	3.706644430E-29
22851405.180097	4.337934191E+01	7.626023094E-03	1.017925688E-27	1.149797867E+00	1.871924908E-03	1.960839463E-29
22960060.666132	4.294554849E+01	6.948262583E-03	5.384894338E-28	1.149813969E+00	1.722810130E-03	1.037297068E-29
23067628.151675	4.251609300E+01	6.330737834E-03	2.848644784E-28	1.149828788E+00	1.585571847E-03	5.487370221E-30
23174118.645210	4.209093207E+01	5.768095412E-03	1.506951966E-28	1.149842427E+00	1.459264405E-03	2.902855205E-30
23279543.033721	4.167002275E+01	5.255457666E-03	7.971875746E-29	1.149854979E+00	1.343017408E-03	1.535629637E-30
23383912.084913	4.125332253E+01	4.788380445E-03	4.217175090E-29	1.149866532E+00	1.236029731E-03	8.123582530E-31
23487236.449340	4.084078930E+01	4.362814572E-03	2.230913565E-29	1.149877164E+00	1.137564014E-03	4.297428984E-31
23589526.662411	4.043238141E+01	3.975070738E-03	1.180168058E-29	1.149886950E+00	1.046941590E-03	2.273368407E-31
23690793.146311	4.002805759E+01	3.621787521E-03	6.243167220E-30	1.149895956E+00	9.635378204E-04	1.202626950E-31
23791046.211835	3.962777702E+01	3.299902244E-03	3.302676826E-30	1.149904245E+00	8.867777922E-04	6.361976250E-32
23890296.060138	3.923149925E+01	3.006624423E-03	1.747137924E-30	1.149911873E+00	8.161323661E-04	3.365527590E-32
23988552.784410	3.883918425E+01	2.739411581E-03	9.242475380E-31	1.149918894E+00	7.511145326E-04	1.780386394E-32
24085826.371486	3.845079241E+01	2.495947200E-03	4.889330715E-31	1.149925355E+00	6.912760603E-04	9.418361992E-33
24182126.703394	3.806628449E+01	2.274120643E-03	2.586488344E-31	1.149931302E+00	6.362044095E-04	4.982375898E-33
24277463.558836	3.768562164E+01	2.072008854E-03	1.368269472E-31	1.149936775E+00	5.855198915E-04	2.635709863E-33
24371846.614630	3.730876543E+01	1.887859690E-03	7.238236165E-32	1.149941812E+00	5.388730545E-04	1.394307981E-33
24465285.447083	3.693567777E+01	1.720076728E-03	3.829074890E-32	1.149946448E+00	4.959422757E-04	7.375981605E-34
24557789.533339	3.656632099E+01	1.567205425E-03	2.025605988E-32	1.149950714E+00	4.564315470E-04	3.901943141E-34
24649368.252665	3.620065778E+01	1.427920514E-03	1.071558989E-32	1.149954640E+00	4.200684347E-04	2.064153775E-34
24740030.887710	3.583865121E+01	1.301014508E-03	5.668618051E-33	1.149958254E+00	3.866022036E-04	1.091951024E-34
24829786.625719	3.548026470E+01	1.185387234E-03	2.998736508E-33	1.149961580E+00	3.558020886E-04	5.776493267E-35
24918644.559721	3.512546205E+01	1.080036300E-03	1.586351482E-33	1.149964641E+00	3.274557048E-04	3.055803212E-35
25006613.689674	3.477420743E+01	9.840483985E-04	8.391904449E-34	1.149967458E+00	3.013675842E-04	1.616540147E-35
25093702.923590	3.442646535E+01	8.965913928E-04	4.439373057E-34	1.149970051E+00	2.773578280E-04	8.551604485E-36
25179921.078625	3.408220070E+01	8.169071023E-04	2.348457762E-34	1.149972437E+00	2.552608674E-04	4.523855434E-36
25265276.882147	3.374137869E+01	7.443047291E-04	1.242349716E-34	1.149974633E+00	2.349243219E-04	2.393149499E-36
25349778.972776	3.340396491E+01	6.781548700E-04	6.572112316E-35	1.149976654E+00	2.162079491E-04	1.265991942E-36
25433435.901404	3.306992526E+01	6.178840597E-04	3.476690961E-35	1.149978514E+00	1.989826780E-04	6.697181253E-37
25516256.132191	3.273922600E+01	5.629697996E-04	1.839192554E-35	1.149980225E+00	1.831297193E-04	3.542853257E-37
25598248.043541	3.241183374E+01	5.129360278E-04	9.729450475E-36	1.149981801E+00	1.685397466E-04	1.874192848E-37
25679419.929057	3.208771541E+01	4.673489925E-04	5.146943767E-36	1.149983251E+00	1.551121423E-04	9.914604345E-38
25759779.998483	3.176683825E+01	4.258134913E-04	2.722767355E-36	1.149984585E+00	1.427543043E-04	5.244891391E-38
25839336.378622	3.144916987E+01	3.879694452E-04	1.440361972E-36	1.149985813E+00	1.313810074E-04	2.774582298E-38
25918097.114240	3.113467817E+01	3.534887774E-04	7.619610266E-37	1.149986944E+00	1.209138157E-04	1.467772419E-38
25996070.168956	3.082333139E+01	3.220725685E-04	4.030824317E-37	1.149987984E+00	1.112805417E-04	7.764613351E-39
26073263.426115	3.051509808E+01	2.934484658E-04	2.132332771E-37	1.149988941E+00	1.024147489E-04	4.107531909E-39
26149684.689649	3.020994710E+01	2.673683216E-04	1.128018165E-37	1.149989822E+00	9.425529330E-05	2.172911596E-39
26225341.684920	2.990784762E+01	2.436060424E-04	5.967290831E-38	1.149990633E+00	8.674590201E-05	1.149484632E-39
26300242.059554	2.960876915E+01	2.219556286E-04	3.156736388E-38	1.149991379E+00	7.983478518E-05	6.080849864E-40
26374393.384263	2.931268146E+01	2.022293888E-04	1.669934465E-38	1.149992066E+00	7.347427887E-05	3.216809869E-40
26447803.153649	2.901955464E+01	1.842563126E-04	8.834063968E-39	1.149992698E+00	6.762051638E-05	1.701713735E-40
26520478.787006	2.872935910E+01	1.678805882E-04	4.673278372E-39	1.149993280E+00	6.223312573E-05	9.002178410E-41
26592427.629100	2.844206550E+01	1.529602514E-04	2.472195223E-39	1.149993815E+00	5.727495130E-05	4.762212026E-41
26663656.950950	2.815764485E+01	1.393659550E-04	1.307807654E-39	1.149994308E+00	5.271179755E-05	2.519241715E-41
26734173.950584	2.787606840E+01	1.269798477E-04	6.918389140E-40	1.149994762E+00	4.851219325E-05	1.332695559E-41
26803985.753804	2.759730772E+01	1.156945519E-04	3.659873695E-40	1.149995179E+00	4.464717444E-05	7.050047812E-42
26873099.414920	2.732133464E+01	1.054122333E-04	1.936097435E-40	1.149995563E+00	4.109008467E-05	3.729522005E-42
26941521.917493	2.704812129E+01	9.604375277E-05	1.024208371E-40	1.149995917E+00	3.781639116E-05	1.972941852E-42
27009260.175058	2.677764008E+01	8.750789311E-05	5.418130146E-41	1.149996242E+00	3.480351567E-05	1.043699312E-42
27076321.031841	2.650986368E+01	7.973065541E-05	2.866226747E-41	1.149996541E+00	3.203067871E-05	5.521238514E-43
27142711.263468	2.624476504E+01	7.264461737E-05	1.516252940E-41	1.149996817E+00	2.947875633E-05	2.920771757E-43
27208437.577664	2.598231739E+01	6.618834883E-05	8.021078518E-42	1.149997070E+00	2.713014812E-05	1.545107612E-43
27273506.614947	2.572249422E+01	6.030587922E-05	4.243203682E-42	1.149997304E+00	2.496865594E-05	8.173721643E-44
27337924.949310	2.546526928E+01	5.494621233E-05	2.244682863E-42	1.149997519E+00	2.297937211E-05	4.323952907E-44
27401699.088898	2.521061658E+01	5.006288422E-05	1.187452107E-42	1.149997716E+00	2.114857669E-05	2.287399738E-44
27464835.476674	2.495851042E+01	4.561356043E-05	6.281700326E-43	1.149997898E+00	1.946364277E-05	1.210049617E-44
27527340.491082	2.470892531E+01	4.155966896E-05	3.323061094E-43	1.149998066E+00	1.791294944E-05	6.401242651E-45
27589220.446699	2.446183606E+01	3.786606587E-05	1.757921337E-43	1.149998220E+00	1.648580165E-05	3.386299776E-45
27650481.594882	2.421721770E+01	3.450073065E-05	9.299520349E-44	1.149998362E+00	1.517235640E-05	1.791375019E-45
27711130.124404	2.397504552E+01	3.143448858E-05	4.919507882E-44	1.149998492E+00	1.396355490E-05	9.476492542E-46
27771172.162092	2.373529507E+01	2.864075785E-05	2.602452265E-44	1.149998612E+00	1.285106009E-05	5.013127344E-46
27830613.773443	2.349794212E+01	2.609531911E-05	1.376714492E-44	1.149998723E+00	1.182719910E-05	2.651977581E-46
27889460.963252	2.326296270E+01	2.377610546E-05	7.282910881E-45	1.149998825E+00	1.088491039E-05	1.402913712E-46
27947719.676216	2.303033307E+01	2.166301124E-05	3.852708111E-45	1.149998918E+00	1.001769501E-05	7.421506492E-47
28005395.797543	2.280002974E+01	1.973771762E-05	2.038108118E-45	1.149999004E+00	9.219571778E-06	3.926026108E-47
28062495.153551	2.257202944E+01	1.798353390E-05	1.078172699E-45	1.149999084E+00	8.485036047E-06	2.076893824E-47
28119023.512256	2.234630915E+01	1.638525273E-05	5.703605014E-46	1.149999157E+00	7.809021727E-06	1.098690594E-47
28174986.583966	2.212284605E+01	1.492901832E-05	3.017244844E-46	1.149999224E+00	7.186866347E-06	5.812146041E-48
28230390.021852	2.190161759E+01	1.360220630E-05	1.596142514E-46	1.149999286E+00	6.614278901E-06	3.074663766E-48
28285239.422530	2.168260142E+01	1.239331431E-05	8.443699657E-47	1.149999343E+00	6.087310252E-06	1.626517504E-48
28339540.326622	2.146577540E+01	1.129186222E-05	4.466773065E-47	1.149999395E+00	5.602325895E-06	8.604385368E-49
28393298.219324	2.125111765E+01	1.028830136E-05	2.362952548E-47	1.149999443E+00	5.155980887E-06	4.551776871E-49
28446518.530958	2.103860647E+01	9.373931669E-06	1.250017554E-47	1.149999488E+00	4.745196785E-06	2.407920124E-49
28499206.637526	2.082822041E+01	8.540826309E-06	6.612675686E-48	1.149999528E+00	4.367140404E-06	1.273805700E-49
28551367.861251	2.061993820E+01	7.781762938E-06	3.498149253E-48	1.149999566E+00	4.019204286E-06	6.738516554E-50
28603007.471120	2.041373882E+01	7.090161095E-06	1.850544133E-48	1.149999601E+00	3.698988710E-06	3.564719906E-50
28654130.683415	2.020960143E+01	6.460025159E-06	9.789501076E-49	1.149999632E+00	3.404285145E-06	1.885760449E-50
28704742.662242	2.000750542E+01	5.885892364E-06	5.178710933E-49	1.149999662E+00	3.133061015E-06	9.975797724E-51
28754848.520058	1.980743037E+01	5.362785449E-06	2.739572397E-49	1.149999689E+00	2.883445683E-06	5.277263094E-51
28804453.318179	1.960935606E+01	4.886169504E-06	1.449251950E-49	1.149999713E+00	2.653717546E-06	2.791707143E-51
28853562.067302	1.941326250E+01	4.451912658E-06	7.666638840E-50	1.149999736E+00	2.442292167E-06	1.476831576E-51
28902179.728008	1.921912988E+01	4.056250258E-06	4.055702744E-50	1.149999757E+00	2.247711338E-06	7.812536890E-52
28950311.211263	1.902693858E+01	3.695752236E-06	2.145493624E-50	1.149999777E+00	2.068633033E-06	4.132883779E-52
28997961.378916	1.883666919E+01	3.367293367E-06	1.134980343E-50	1.149999794E+00	1.903822145E-06	2.186322903E-52
29045135.044192	1.864830250E+01	3.068026181E-06	6.004121216E-51	1.149999811E+00	1.752141968E-06	1.156579302E-52
29091836.972177	1.846181948E+01	2.795356276E-06	3.176219906E-51	1.149999826E+00	1.612546362E-06	6.118381141E-53
29138071.880301	1.827720128E+01	2.546919827E-06	1.680241375E-51	1.149999840E+00	1.484072532E-06	3.236664163E-53
29183844.438814	1.809442927E+01	2.320563093E-06	8.888588205E-52	1.149999853E+00	1.365834390E-06	1.712216788E-53
29229159.271258	1.791348497E+01	2.114323745E-06	4.702122055E-52	1.149999864E+00	1.257016447E-06	9.057740256E-54
29274020.954939	1.773435013E+01	1.926413858E-06	2.487453722E-52	1.149999875E+00	1.156868180E-06	4.791604610E-54
29318434.021381	1.755700662E+01	1.755204405E-06	1.315879501E-52	1.149999885E+00	1.064698866E-06	2.534790587E-54
29362402.956794	1.738143656E+01	1.599211141E-06	6.961089746E-53	1.149999894E+00	9.798728103E-07	1.340921016E-54
29405932.202521	1.720762219E+01	1.457081732E-06	3.682462599E-53	1.149999903E+00	9.018049650E-07	7.093561021E-55
29449026.155486	1.703554597E+01	1.327584031E-06	1.948047114E-53	1.149999910E+00	8.299568942E-07	3.752540781E-55
29491689.168646	1.686519051E+01	1.209595399E-06	1.030529831E-53	1.149999918E+00	7.638330600E-07	1.985118937E-55
29533925.551423	1.669653861E+01	1.102092971E-06	5.451571086E-54	1.149999924E+00	7.029774044E-07	1.050141071E-55
29575739.570143	1.652957322E+01	1.004144790E-06	2.883917226E-54	1.149999930E+00	6.469702042E-07	5.555315844E-56
29617135.448466	1.636427749E+01	9.149017234E-07	1.525611321E-54	1.149999936E+00	5.954251764E-07	2.938798890E-56
29658117.367816	1.620063471E+01	8.335901077E-07	8.070584972E-55	1.149999941E+00	5.479868133E-07	1.554644085E-56
29698689.467799	1.603862837E+01	7.595050374E-07	4.269392925E-55	1.149999946E+00	5.043279313E-07	8.224170218E-57
29738855.846624	1.587824208E+01	6.920042554E-07	2.258537145E-55	1.149999950E+00	4.641474139E-07	4.350640537E-57
29937679.419849	1.508432998E+01	4.303382796E-07	8.759359519E-57	1.149999967E+00	3.038320266E-07	1.687323349E-58
30126561.812091	1.433011348E+01	2.676154568E-07	3.397171454E-58	1.149999979E+00	1.988891830E-07	6.544002107E-60
30306000.083276	1.361360780E+01	1.664226403E-07	1.317536272E-59	1.149999986E+00	1.301933420E-07	2.537982041E-61
30476466.440005	1.293292741E+01	1.034936305E-07	5.109844622E-61	1.149999991E+00	8.522487759E-08	9.843139927E-63
30638409.478339	1.228628104E+01	6.435982227E-08	1.981767987E-62	1.149999994E+00	5.578841157E-08	3.817497604E-64
30792255.364409	1.167196699E+01	4.002359086E-08	7.685956514E-64	1.149999996E+00	3.651922949E-08	1.480552757E-65
30938408.955959	1.108836864E+01	2.488956260E-08	2.980870006E-65	1.149999997E+00	2.390557616E-08	5.742076862E-67
31077254.867797	1.053395021E+01	1.547812960E-08	1.156080701E-66	1.149999998E+00	1.564864811E-08	2.226968714E-68
31209158.483961	1.000725270E+01	9.625420091E-09	4.483666126E-68	1.149999999E+00	1.024364298E-08	8.636926624E-70
31334466.919264	9.506890064E+00	5.985782154E-09	1.738915104E-69	1.149999999E+00	6.705513524E-09	3.349687898E-71
31453509.932769	9.031545561E+00	3.722392130E-09	6.744092123E-71	1.150000000E+00	4.389445405E-09	1.299120567E-72
31566600.795579	8.579968283E+00	2.314852564E-09	2.615583616E-72	1.150000000E+00	2.873341601E-09	5.038422383E-74
31674037.115237	8.150969869E+00	1.439542694E-09	1.014410469E-73	1.150000000E+00	1.880896376E-09	1.954068063E-75
31776101.618903	7.743421375E+00	8.952117295E-10	3.934221765E-75	1.150000000E+00	1.231239326E-09	7.578526980E-77
31873062.897382	7.356250307E+00	5.567073794E-10	1.525822275E-76	1.150000000E+00	7.336560473E-11	2.939205254E-78
31965176.111933	6.988437791E+00	3.462008998E-10	5.917647137E-78	1.150000000E+00	4.562403753E-11	1.139921722E-79
32052683.665755	6.639015902E+00	2.152927506E-10	2.295060716E-79	1.150000000E+00	2.837232526E-11	4.420996221E-81
32135815.841885	6.307065107E+00	1.338845985E-10	8.901010093E-81	1.150000000E+00	1.764396324E-11	1.714609627E-82
32214791.409208	5.991711851E+00	8.325912355E-11	3.452108266E-82	1.150000000E+00	1.097229204E-11	6.649827385E-84
32289818.198164	5.692126259E+00	5.177654286E-11	1.338842598E-83	1.150000000E+00	6.823364515E-12	2.579024610E-85
32361093.647671	5.407519946E+00	3.219839792E-11	5.192477653E-85	1.150000000E+00	4.243261401E-12	1.000231668E-86
32428805.324704	5.137143949E+00	2.002329185E-11	2.013815830E-86	1.150000000E+00	2.638766737E-12	3.879231653E-88
32493131.417884	4.880286751E+00	1.245193060E-11	7.810248724E-88	1.150000000E+00	1.640975947E-12	1.504495278E-89
32554241.206406	4.636272414E+00	7.743510755E-12	3.029074666E-89	1.150000000E+00	1.020477490E-12	5.834933935E-91
32612295.505501	4.404458793E+00	4.815474862E-12	1.174776074E-90	1.150000000E+00	6.346066863E-13	2.262981780E-92
32667447.089642	4.184235853E+00	2.994610440E-12	4.556173012E-92	1.150000000E+00	3.946443212E-13	8.776597294E-94
32719841.094576	3.975024061E+00	1.862265289E-12	1.767035690E-93	1.150000000E+00	2.454183726E-13	3.403856837E-95
32769615.399262	3.776272858E+00	1.158091203E-12	6.853153124E-95	1.150000000E+00	1.526188885E-13	1.320129087E-96
32816900.988715	3.587459215E+00	7.201848428E-13	2.657881106E-96	1.150000000E+00	9.490945955E-14	5.119900421E-98
32861822.298695	3.408086254E+00	4.478630063E-13	1.030814844E-97	1.150000000E+00	5.902156413E-14	1.985667961E-99
32904497.543176	3.237681941E+00	2.785135989E-13	3.997843400E-99	1.150000000E+00	3.670387598E-14	7.701081911E-101
32945039.025433	3.075797844E+00	1.731998930E-13	1.550496865E-100	1.150000000E+00	2.282512386E-14	2.986736139E-102
32983553.433577	2.922007952E+00	1.077082163E-13	6.013343416E-102	1.150000000E+00	1.419431233E-14	1.158355783E-103
33020142.121313	2.775907554E+00	6.698075643E-14	2.332174921E-103	1.150000000E+00	8.827049690E-15	4.492489651E-105
33054901.374663	2.637112177E+00	4.165347722E-14	9.044951347E-105	1.150000000E+00	5.489297714E-15	1.742337161E-106
33087922.665346	2.505256568E+00	2.590314378E-14	3.507933480E-106	1.150000000E+00	3.413642208E-15	6.757364000E-108
33119292.891494	2.379993739E+00	1.610844766E-14	1.360493476E-107	1.150000000E+00	2.122849540E-15	2.620730892E-109
33149094.606335	2.260994052E+00	1.001739744E-14	5.276446971E-109	1.150000000E+00	1.320141331E-15	1.016406754E-110
33177406.235434	2.147944350E+00	6.229542008E-15	2.046381929E-110	1.150000000E+00	8.209593290E-16	3.941964024E-112
33204302.283078	2.040547132E+00	3.873979632E-15	7.936550906E-112	1.150000000E+00	5.105318681E-16	1.528824981E-113
33229853.528340	1.938519776E+00	2.409120633E-15	3.078058860E-113	1.150000000E+00	3.174856283E-16	5.929292631E-115
33254127.211338	1.841593787E+00	1.498165395E-15	1.193773777E-114	1.150000000E+00	1.974355187E-16	2.299577227E-116
33277187.210187	1.749514098E+00	9.316675636E-16	4.629852431E-116	1.150000000E+00	1.227796806E-16	8.918526626E-118
33299094.209093	1.662038393E+00	5.793782529E-16	1.795611024E-117	1.150000000E+00	7.635328264E-17	3.458901761E-119
33319905.858054	1.578936473E+00	3.602992881E-16	6.963977788E-119	1.150000000E+00	4.748199167E-17	1.341477342E-120
33339676.924567	1.499989649E+00	2.240601478E-16	2.700862603E-120	1.150000000E+00	2.952773549E-17	5.202696067E-122
33358459.437755	1.424990167E+00	1.393368000E-16	1.047484501E-121	1.150000000E+00	1.836248085E-17	2.017778871E-123
33376302.825283	1.353740659E+00	8.664969664E-17	4.062493882E-123	1.150000000E+00	1.141911825E-17	7.825618719E-125
33393254.043434	1.286053626E+00	5.388504635E-17	1.575570476E-124	1.150000000E+00	7.101233355E-18	3.035035663E-126
33409357.700678	1.221750944E+00	3.350961784E-17	6.110587233E-126	1.150000000E+00	4.416060337E-18	1.177087947E-127
33424656.175060	1.160663397E+00	2.083870320E-17	2.369889313E-127	1.150000000E+00	2.746225609E-18	4.565139225E-129
33439189.725722	1.102630227E+00	1.295901234E-17	9.191220324E-129	1.150000000E+00	1.707801643E-18	1.770513087E-130
33452996.598852	1.047498716E+00	8.058850840E-18	3.564661462E-130	1.150000000E+00	1.062034540E-18	6.866639626E-132
33466113.128325	9.951237802E-01	5.011576127E-18	1.382494478E-131	1.150000000E+00	6.604498643E-19	2.663111620E-133
33478573.831324	9.453675911E-01	3.116560385E-18	5.361774185E-133	1.150000000E+00	4.107154778E-19	1.032843412E-134
33490411.499174	8.980992116E-01	1.938102582E-18	2.079474665E-134	1.150000000E+00	2.554125798E-19	4.005710861E-136
33501657.283631	8.531942510E-01	1.205252315E-18	8.064895563E-136	1.150000000E+00	1.588340091E-19	1.553548129E-137
33512340.778865	8.105345385E-01	7.495130322E-19	3.127835195E-137	9.892107258E-01	9.877447092E-20	6.025177234E-139
33522490.099337	7.700078115E-01	4.661013950E-19	1.213078697E-138	9.397501895E-01	6.142510765E-20	2.336764470E-140
33532131.953786	7.315074210E-01	2.898555477E-19	4.704723346E-140	8.927626800E-01	3.819857312E-20	9.062751146E-142
33541291.715512	6.949320499E-01	1.802531368E-19	1.824648459E-141	8.481245460E-01	2.375463462E-20	3.514836835E-143