title = "dataset falk221"
variables = "time", "h_w", "p_w", "s_w", "theta_a", "s_a", "theta_g", "q_root"
zone t = "Flow variables, volume =   201, delx =  1.00E+00, dely =  1.00E+00, delz =  6.25E-04", f=point
  0.1000000E-05 -0.1860095E+00 -0.4360095E+00  0.7426498E+00  0.3015158E+00  0.2573502E+00  0.1044842E+00  0.0000000E+00
  0.2000000E-05 -0.1860030E+00 -0.4360030E+00  0.7426522E+00  0.3015168E+00  0.2573478E+00  0.1044832E+00  0.0000000E+00
  0.3558387E-05 -0.1859930E+00 -0.4359930E+00  0.7426561E+00  0.3015184E+00  0.2573439E+00  0.1044816E+00  0.0000000E+00
  0.6181544E-05 -0.1859761E+00 -0.4359761E+00  0.7426625E+00  0.3015210E+00  0.2573375E+00  0.1044790E+00  0.0000000E+00
  0.1026944E-04 -0.1859497E+00 -0.4359497E+00  0.7426726E+00  0.3015251E+00  0.2573274E+00  0.1044749E+00  0.0000000E+00
  0.1663996E-04 -0.1859087E+00 -0.4359087E+00  0.7426883E+00  0.3015315E+00  0.2573117E+00  0.1044685E+00  0.0000000E+00
  0.2656771E-04 -0.1858449E+00 -0.4358449E+00  0.7427127E+00  0.3015414E+00  0.2572873E+00  0.1044586E+00  0.0000000E+00
  0.4203898E-04 -0.1857457E+00 -0.4357457E+00  0.7427507E+00  0.3015568E+00  0.2572493E+00  0.1044432E+00  0.0000000E+00
  0.6614922E-04 -0.1855916E+00 -0.4355916E+00  0.7428096E+00  0.3015807E+00  0.2571904E+00  0.1044193E+00  0.0000000E+00
  0.1037223E-03 -0.1853527E+00 -0.4353527E+00  0.7429011E+00  0.3016178E+00  0.2570989E+00  0.1043822E+00  0.0000000E+00
  0.1622757E-03 -0.1849838E+00 -0.4349838E+00  0.7430424E+00  0.3016752E+00  0.2569576E+00  0.1043248E+00  0.0000000E+00
  0.2535247E-03 -0.1844164E+00 -0.4344164E+00  0.7432599E+00  0.3017635E+00  0.2567401E+00  0.1042365E+00  0.0000000E+00
  0.3865417E-03 -0.1836051E+00 -0.4336051E+00  0.7435714E+00  0.3018900E+00  0.2564286E+00  0.1041100E+00  0.0000000E+00
  0.5804457E-03 -0.1824552E+00 -0.4324552E+00  0.7440137E+00  0.3020696E+00  0.2559863E+00  0.1039304E+00  0.0000000E+00
  0.8631069E-03 -0.1808448E+00 -0.4308448E+00  0.7446349E+00  0.3023218E+00  0.2553651E+00  0.1036782E+00  0.0000000E+00
  0.1275153E-02 -0.1786276E+00 -0.4286276E+00  0.7454934E+00  0.3026703E+00  0.2545066E+00  0.1033297E+00  0.0000000E+00
  0.1875808E-02 -0.1756450E+00 -0.4256450E+00  0.7466542E+00  0.3031416E+00  0.2533458E+00  0.1028584E+00  0.0000000E+00
  0.2751406E-02 -0.1717531E+00 -0.4217531E+00  0.7481794E+00  0.3037609E+00  0.2518206E+00  0.1022391E+00  0.0000000E+00
  0.3954800E-02 -0.1671077E+00 -0.4171077E+00  0.7500156E+00  0.3045063E+00  0.2499844E+00  0.1014937E+00  0.0000000E+00
  0.5608706E-02 -0.1617367E+00 -0.4117367E+00  0.7521601E+00  0.3053770E+00  0.2478399E+00  0.1006230E+00  0.0000000E+00
  0.7881784E-02 -0.1557047E+00 -0.4057047E+00  0.7545965E+00  0.3063662E+00  0.2454035E+00  0.9963380E-01  0.0000000E+00
  0.1100583E-01 -0.1490670E+00 -0.3990670E+00  0.7573125E+00  0.3074689E+00  0.2426875E+00  0.9853112E-01  0.0000000E+00
  0.1507909E-01 -0.1421362E+00 -0.3921362E+00  0.7601882E+00  0.3086364E+00  0.2398118E+00  0.9736357E-01  0.0000000E+00
  0.2067724E-01 -0.1345024E+00 -0.3845024E+00  0.7634038E+00  0.3099419E+00  0.2365962E+00  0.9605806E-01  0.0000000E+00
  0.2797635E-01 -0.1264258E+00 -0.3764258E+00  0.7668620E+00  0.3113460E+00  0.2331380E+00  0.9465401E-01  0.0000000E+00
  0.3749322E-01 -0.1177969E+00 -0.3677969E+00  0.7706222E+00  0.3128726E+00  0.2293778E+00  0.9312737E-01  0.0000000E+00
  0.4990169E-01 -0.1085284E+00 -0.3585284E+00  0.7747386E+00  0.3145439E+00  0.2252614E+00  0.9145613E-01  0.0000000E+00
  0.6467073E-01 -0.9931211E-01 -0.3493121E+00  0.7789135E+00  0.3162389E+00  0.2210865E+00  0.8976113E-01  0.0000000E+00
  0.8224941E-01 -0.9005602E-01 -0.3400560E+00  0.7831908E+00  0.3179755E+00  0.2168092E+00  0.8802453E-01  0.0000000E+00
  0.1031722E+00 -0.8069685E-01 -0.3306968E+00  0.7876043E+00  0.3197673E+00  0.2123957E+00  0.8623266E-01  0.0000000E+00
  0.1250718E+00 -0.7221461E-01 -0.3222146E+00  0.7916832E+00  0.3214234E+00  0.2083168E+00  0.8457661E-01  0.0000000E+00
  0.1500969E+00 -0.6376901E-01 -0.3137690E+00  0.7958212E+00  0.3231034E+00  0.2041788E+00  0.8289658E-01  0.0000000E+00
  0.1734499E+00 -0.5673952E-01 -0.3067395E+00  0.7993251E+00  0.3245260E+00  0.2006749E+00  0.8147400E-01  0.0000000E+00
  0.2012455E+00 -0.4928925E-01 -0.2992893E+00  0.8030994E+00  0.3260583E+00  0.1969006E+00  0.7994165E-01  0.0000000E+00
  0.2263631E+00 -0.4317470E-01 -0.2931747E+00  0.8062445E+00  0.3273353E+00  0.1937555E+00  0.7866473E-01  0.0000000E+00
  0.2562591E+00 -0.3658754E-01 -0.2865875E+00  0.8096816E+00  0.3287307E+00  0.1903184E+00  0.7726926E-01  0.0000000E+00
  0.2844061E+00 -0.3090219E-01 -0.2809022E+00  0.8126897E+00  0.3299520E+00  0.1873103E+00  0.7604799E-01  0.0000000E+00
  0.3179079E+00 -0.2472726E-01 -0.2747273E+00  0.8160011E+00  0.3312964E+00  0.1839989E+00  0.7470356E-01  0.0000000E+00
  0.3487913E+00 -0.1946862E-01 -0.2694686E+00  0.8188581E+00  0.3324564E+00  0.1811419E+00  0.7354362E-01  0.0000000E+00
  0.3855500E+00 -0.1371524E-01 -0.2637152E+00  0.8220234E+00  0.3337415E+00  0.1779766E+00  0.7225850E-01  0.0000000E+00
  0.4202048E+00 -0.8682565E-02 -0.2586826E+00  0.8248266E+00  0.3348796E+00  0.1751734E+00  0.7112041E-01  0.0000000E+00
  0.4614522E+00 -0.3154816E-02 -0.2531548E+00  0.8279430E+00  0.3361449E+00  0.1720570E+00  0.6985515E-01  0.0000000E+00
  0.4993969E+00  0.1584968E-02 -0.2484150E+00  0.8306468E+00  0.3372426E+00  0.1693532E+00  0.6875740E-01  0.0000000E+00
  0.5445602E+00  0.6814514E-02 -0.2431855E+00  0.8336643E+00  0.3384677E+00  0.1663357E+00  0.6753230E-01  0.0000000E+00
  0.5873792E+00  0.1144468E-01 -0.2385553E+00  0.8363664E+00  0.3395647E+00  0.1636336E+00  0.6643526E-01  0.0000000E+00
  0.6383440E+00  0.1656136E-01 -0.2334386E+00  0.8393859E+00  0.3407907E+00  0.1606141E+00  0.6520933E-01  0.0000000E+00
  0.6851412E+00  0.2096224E-01 -0.2290378E+00  0.8420115E+00  0.3418567E+00  0.1579885E+00  0.6414333E-01  0.0000000E+00
  0.7408411E+00  0.2584068E-01 -0.2241593E+00  0.8449531E+00  0.3430510E+00  0.1550469E+00  0.6294903E-01  0.0000000E+00
  0.7941860E+00  0.3021818E-01 -0.2197818E+00  0.8476207E+00  0.3441340E+00  0.1523793E+00  0.6186598E-01  0.0000000E+00
  0.8576791E+00  0.3507014E-01 -0.2149299E+00  0.8506088E+00  0.3453472E+00  0.1493912E+00  0.6065284E-01  0.0000000E+00
  0.9145187E+00  0.3915396E-01 -0.2108460E+00  0.8531494E+00  0.3463787E+00  0.1468506E+00  0.5962133E-01  0.0000000E+00
  0.9821713E+00  0.4369758E-01 -0.2063024E+00  0.8560039E+00  0.3475376E+00  0.1439961E+00  0.5846241E-01  0.0000000E+00
  0.1048797E+01  0.4789662E-01 -0.2021034E+00  0.8586681E+00  0.3486192E+00  0.1413319E+00  0.5738075E-01  0.0000000E+00
  0.1128098E+01  0.5255650E-01 -0.1974435E+00  0.8616542E+00  0.3498316E+00  0.1383458E+00  0.5616839E-01  0.0000000E+00
  0.1196707E+01  0.5635737E-01 -0.1936426E+00  0.8641130E+00  0.3508299E+00  0.1358870E+00  0.5517013E-01  0.0000000E+00
  0.1282000E+01  0.6077500E-01 -0.1892250E+00  0.8669969E+00  0.3520008E+00  0.1330031E+00  0.5399924E-01  0.0000000E+00
  0.1360931E+01  0.6462393E-01 -0.1853761E+00  0.8695327E+00  0.3530303E+00  0.1304673E+00  0.5296974E-01  0.0000000E+00
  0.1454877E+01  0.6890985E-01 -0.1810901E+00  0.8723815E+00  0.3541869E+00  0.1276185E+00  0.5181311E-01  0.0000000E+00
  0.1542945E+01  0.7269256E-01 -0.1773074E+00  0.8749180E+00  0.3552167E+00  0.1250820E+00  0.5078331E-01  0.0000000E+00
  0.1647767E+01  0.7690402E-01 -0.1730960E+00  0.8777663E+00  0.3563731E+00  0.1222337E+00  0.4962689E-01  0.0000000E+00
  0.1743941E+01  0.8054556E-01 -0.1694544E+00  0.8802498E+00  0.3573814E+00  0.1197502E+00  0.4861858E-01  0.0000000E+00
  0.1858412E+01  0.8460372E-01 -0.1653963E+00  0.8830399E+00  0.3585142E+00  0.1169601E+00  0.4748578E-01  0.0000000E+00
  0.1966664E+01  0.8821760E-01 -0.1617824E+00  0.8855445E+00  0.3595311E+00  0.1144555E+00  0.4646894E-01  0.0000000E+00
  0.2095510E+01  0.9224060E-01 -0.1577594E+00  0.8883544E+00  0.3606719E+00  0.1116456E+00  0.4532811E-01  0.0000000E+00
  0.2212727E+01  0.9569089E-01 -0.1543091E+00  0.8907825E+00  0.3616577E+00  0.1092175E+00  0.4434229E-01  0.0000000E+00
  0.2352243E+01  0.9953620E-01 -0.1504638E+00  0.8935083E+00  0.3627644E+00  0.1064917E+00  0.4323564E-01  0.0000000E+00
  0.2486033E+01  0.1030061E+00 -0.1469939E+00  0.8959855E+00  0.3637701E+00  0.1040145E+00  0.4222990E-01  0.0000000E+00
  0.2645276E+01  0.1068646E+00 -0.1431354E+00  0.8987593E+00  0.3648963E+00  0.1012407E+00  0.4110371E-01  0.0000000E+00
  0.2786879E+01  0.1101001E+00 -0.1398999E+00  0.9011007E+00  0.3658469E+00  0.9889927E-01  0.4015311E-01  0.0000000E+00
  0.2962915E+01  0.1138564E+00 -0.1361436E+00  0.9038364E+00  0.3669576E+00  0.9616362E-01  0.3904243E-01  0.0000000E+00
  0.3119265E+01  0.1170016E+00 -0.1329984E+00  0.9061409E+00  0.3678932E+00  0.9385907E-01  0.3810678E-01  0.0000000E+00
  0.3313634E+01  0.1206510E+00 -0.1293490E+00  0.9088307E+00  0.3689852E+00  0.9116934E-01  0.3701475E-01  0.0000000E+00
  0.3486309E+01  0.1237061E+00 -0.1262939E+00  0.9110949E+00  0.3699045E+00  0.8890513E-01  0.3609548E-01  0.0000000E+00
  0.3700973E+01  0.1272485E+00 -0.1227515E+00  0.9137342E+00  0.3709761E+00  0.8626583E-01  0.3502393E-01  0.0000000E+00
  0.3892106E+01  0.1302184E+00 -0.1197816E+00  0.9159581E+00  0.3718790E+00  0.8404189E-01  0.3412101E-01  0.0000000E+00
  0.4129715E+01  0.1336585E+00 -0.1163415E+00  0.9185463E+00  0.3729298E+00  0.8145366E-01  0.3307019E-01  0.0000000E+00
  0.4340986E+01  0.1365365E+00 -0.1134635E+00  0.9207213E+00  0.3738129E+00  0.7927868E-01  0.3218715E-01  0.0000000E+00
  0.4603630E+01  0.1398665E+00 -0.1101335E+00  0.9232482E+00  0.3748388E+00  0.7675177E-01  0.3116122E-01  0.0000000E+00
  0.4838353E+01  0.1426632E+00 -0.1073368E+00  0.9253787E+00  0.3757037E+00  0.7462134E-01  0.3029627E-01  0.0000000E+00
  0.5130153E+01  0.1458937E+00 -0.1041063E+00  0.9278482E+00  0.3767064E+00  0.7215175E-01  0.2929361E-01  0.0000000E+00
  0.5389104E+01  0.1485853E+00 -0.1014147E+00  0.9299125E+00  0.3775445E+00  0.7008752E-01  0.2845553E-01  0.0000000E+00
  0.5711023E+01  0.1516902E+00 -0.9830984E-01  0.9323005E+00  0.3785140E+00  0.6769951E-01  0.2748600E-01  0.0000000E+00
  0.6001074E+01  0.1543112E+00 -0.9568881E-01  0.9343215E+00  0.3793345E+00  0.6567845E-01  0.2666545E-01  0.0000000E+00
  0.6361655E+01  0.1573266E+00 -0.9267340E-01  0.9366519E+00  0.3802807E+00  0.6334813E-01  0.2571934E-01  0.0000000E+00
  0.6678745E+01  0.1598092E+00 -0.9019075E-01  0.9385741E+00  0.3810611E+00  0.6142591E-01  0.2493892E-01  0.0000000E+00
  0.7092181E+01  0.1627905E+00 -0.8720952E-01  0.9408859E+00  0.3819997E+00  0.5911409E-01  0.2400032E-01  0.0000000E+00
  0.7426029E+01  0.1650479E+00 -0.8495213E-01  0.9426385E+00  0.3827112E+00  0.5736152E-01  0.2328878E-01  0.0000000E+00
  0.7912692E+01  0.1680554E+00 -0.8194459E-01  0.9449754E+00  0.3836600E+00  0.5502459E-01  0.2233998E-01  0.0000000E+00
  0.8256939E+01  0.1700559E+00 -0.7994413E-01  0.9465306E+00  0.3842914E+00  0.5346944E-01  0.2170859E-01  0.0000000E+00
  0.8793411E+01  0.1728971E+00 -0.7710290E-01  0.9487396E+00  0.3851883E+00  0.5126041E-01  0.2081173E-01  0.0000000E+00
  0.9215810E+01  0.1749821E+00 -0.7501785E-01  0.9503603E+00  0.3858463E+00  0.4963966E-01  0.2015370E-01  0.0000000E+00
  0.9831557E+01  0.1777344E+00 -0.7226560E-01  0.9524984E+00  0.3867144E+00  0.4750156E-01  0.1928563E-01  0.0000000E+00
  0.1028309E+02  0.1796159E+00 -0.7038408E-01  0.9539588E+00  0.3873073E+00  0.4604124E-01  0.1869275E-01  0.0000000E+00
  0.1098676E+02  0.1822521E+00 -0.6774794E-01  0.9560021E+00  0.3881368E+00  0.4399792E-01  0.1786315E-01  0.0000000E+00
  0.1149640E+02  0.1840248E+00 -0.6597516E-01  0.9573740E+00  0.3886938E+00  0.4262603E-01  0.1730617E-01  0.0000000E+00
  0.1229062E+02  0.1864924E+00 -0.6350764E-01  0.9592797E+00  0.3894676E+00  0.4072029E-01  0.1653244E-01  0.0000000E+00
  0.1288354E+02  0.1881908E+00 -0.6180921E-01  0.9605884E+00  0.3899989E+00  0.3941155E-01  0.1600109E-01  0.0000000E+00
  0.1380754E+02  0.1905296E+00 -0.5947041E-01  0.9623858E+00  0.3907287E+00  0.3761415E-01  0.1527135E-01  0.0000000E+00
  0.1445315E+02  0.1920331E+00 -0.5796690E-01  0.9635380E+00  0.3911964E+00  0.3646201E-01  0.1480358E-01  0.0000000E+00
  0.1545926E+02  0.1940947E+00 -0.5590533E-01  0.9651129E+00  0.3918359E+00  0.3488705E-01  0.1416414E-01  0.0000000E+00
  0.1629646E+02  0.1956424E+00 -0.5435761E-01  0.9662913E+00  0.3923143E+00  0.3370873E-01  0.1368575E-01  0.0000000E+00
  0.1744708E+02  0.1974947E+00 -0.5250526E-01  0.9676964E+00  0.3928847E+00  0.3230361E-01  0.1311527E-01  0.0000000E+00
  0.1843659E+02  0.1989138E+00 -0.5108617E-01  0.9687687E+00  0.3933201E+00  0.3123127E-01  0.1267990E-01  0.0000000E+00
  0.1979653E+02  0.2005840E+00 -0.4941595E-01  0.9700258E+00  0.3938305E+00  0.2997418E-01  0.1216952E-01  0.0000000E+00
  0.2104404E+02  0.2019182E+00 -0.4808177E-01  0.9710258E+00  0.3942365E+00  0.2897423E-01  0.1176354E-01  0.0000000E+00
  0.2259490E+02  0.2033205E+00 -0.4667952E-01  0.9720724E+00  0.3946614E+00  0.2792761E-01  0.1133861E-01  0.0000000E+00
  0.2400000E+02  0.2044149E+00 -0.4558510E-01  0.9728859E+00  0.3949917E+00  0.2711405E-01  0.1100831E-01  0.0000000E+00
  0.2593112E+02  0.1477664E+00 -0.1022336E+00  0.9292839E+00  0.3772893E+00  0.7071612E-01  0.2871074E-01  0.0000000E+00
  0.2822961E+02  0.1179411E+00 -0.1320589E+00  0.9068318E+00  0.3681737E+00  0.9316817E-01  0.3782628E-01  0.0000000E+00
  0.3096537E+02  0.9394193E-01 -0.1560581E+00  0.8895496E+00  0.3611571E+00  0.1104504E+00  0.4484285E-01  0.0000000E+00
  0.3472530E+02  0.6972924E-01 -0.1802708E+00  0.8729292E+00  0.3544092E+00  0.1270708E+00  0.5159076E-01  0.0000000E+00
  0.4058474E+02  0.4165054E-01 -0.2083495E+00  0.8547143E+00  0.3470140E+00  0.1452857E+00  0.5898601E-01  0.0000000E+00
  0.4971600E+02  0.8691965E-02 -0.2413080E+00  0.8347565E+00  0.3389111E+00  0.1652435E+00  0.6708887E-01  0.0000000E+00
  0.6171600E+02 -0.2558472E-01 -0.2755847E+00  0.8155385E+00  0.3311086E+00  0.1844615E+00  0.7489138E-01  0.0000000E+00
  0.7371600E+02 -0.5488166E-01 -0.3048817E+00  0.8002604E+00  0.3249057E+00  0.1997396E+00  0.8109427E-01  0.0000000E+00
  0.8571600E+02 -0.8091725E-01 -0.3309172E+00  0.7874993E+00  0.3197247E+00  0.2125007E+00  0.8627528E-01  0.0000000E+00
  0.9600000E+02 -0.1015518E+00 -0.3515518E+00  0.7778913E+00  0.3158239E+00  0.2221087E+00  0.9017614E-01  0.0000000E+00
  0.1080000E+03 -0.1237351E+00 -0.3737351E+00  0.7680272E+00  0.3118191E+00  0.2319728E+00  0.9418095E-01  0.0000000E+00
  0.1200000E+03 -0.1445045E+00 -0.3945045E+00  0.7592010E+00  0.3082356E+00  0.2407990E+00  0.9776440E-01  0.0000000E+00
  0.1320000E+03 -0.1641271E+00 -0.4141271E+00  0.7512028E+00  0.3049883E+00  0.2487972E+00  0.1010117E+00  0.0000000E+00
  0.1440000E+03 -0.1827945E+00 -0.4327945E+00  0.7438831E+00  0.3020166E+00  0.2561169E+00  0.1039834E+00  0.0000000E+00
  0.1560000E+03 -0.2006487E+00 -0.4506487E+00  0.7371314E+00  0.2992753E+00  0.2628686E+00  0.1067247E+00  0.0000000E+00
  0.1680000E+03 -0.2177992E+00 -0.4677992E+00  0.7308630E+00  0.2967304E+00  0.2691370E+00  0.1092696E+00  0.0000000E+00
  0.1800000E+03  0.1609886E+00 -0.8901142E-01  0.9394882E+00  0.3814322E+00  0.6051181E-01  0.2456779E-01  0.0000000E+00
  0.1920000E+03  0.1963303E+00 -0.5366968E-01  0.9668138E+00  0.3925264E+00  0.3318621E-01  0.1347360E-01  0.0000000E+00
  0.2040000E+03  0.7471298E-01 -0.1752870E+00  0.8762812E+00  0.3557702E+00  0.1237188E+00  0.5022982E-01  0.0000000E+00
  0.2160000E+03  0.1926363E-01 -0.2307364E+00  0.8409950E+00  0.3414440E+00  0.1590050E+00  0.6455605E-01  0.0000000E+00
  0.2280000E+03 -0.2010203E-01 -0.2701020E+00  0.8185121E+00  0.3323159E+00  0.1814879E+00  0.7368407E-01  0.0000000E+00
  0.2400000E+03 -0.5192832E-01 -0.3019283E+00  0.8017552E+00  0.3255126E+00  0.1982448E+00  0.8048738E-01  0.0000000E+00
  0.2520000E+03 -0.7935869E-01 -0.3293587E+00  0.7882427E+00  0.3200265E+00  0.2117573E+00  0.8597345E-01  0.0000000E+00
  0.2640000E+03 -0.1038965E+00 -0.3538965E+00  0.7768265E+00  0.3153915E+00  0.2231735E+00  0.9060846E-01  0.0000000E+00
  0.2760000E+03 -0.1263717E+00 -0.3763717E+00  0.7668854E+00  0.3113555E+00  0.2331146E+00  0.9464453E-01  0.0000000E+00
  0.2880000E+03 -0.1472881E+00 -0.3972881E+00  0.7580467E+00  0.3077670E+00  0.2419533E+00  0.9823304E-01  0.0000000E+00
  0.3000000E+03 -0.1669739E+00 -0.4169739E+00  0.7500687E+00  0.3045279E+00  0.2499313E+00  0.1014721E+00  0.0000000E+00
  0.3120000E+03 -0.1856548E+00 -0.4356548E+00  0.7427855E+00  0.3015709E+00  0.2572145E+00  0.1044291E+00  0.0000000E+00
  0.3240000E+03 -0.2034933E+00 -0.4534933E+00  0.7360773E+00  0.2988474E+00  0.2639227E+00  0.1071526E+00  0.0000000E+00
  0.3360000E+03 -0.2206109E+00 -0.4706109E+00  0.7298548E+00  0.2963211E+00  0.2701452E+00  0.1096789E+00  0.0000000E+00
  0.3480000E+03 -0.2371011E+00 -0.4871011E+00  0.7240492E+00  0.2939640E+00  0.2759508E+00  0.1120360E+00  0.0000000E+00
  0.3600000E+03 -0.2530379E+00 -0.5030379E+00  0.7186060E+00  0.2917541E+00  0.2813940E+00  0.1142459E+00  0.0000000E+00
  0.3720000E+03 -0.2684810E+00 -0.5184810E+00  0.7134814E+00  0.2896735E+00  0.2865186E+00  0.1163265E+00  0.0000000E+00
  0.3840000E+03 -0.2834797E+00 -0.5334797E+00  0.7086393E+00  0.2877076E+00  0.2913607E+00  0.1182924E+00  0.0000000E+00
  0.3960000E+03 -0.2980750E+00 -0.5480750E+00  0.7040499E+00  0.2858442E+00  0.2959501E+00  0.1201558E+00  0.0000000E+00
  0.4080000E+03 -0.3123019E+00 -0.5623019E+00  0.6996877E+00  0.2840732E+00  0.3003123E+00  0.1219268E+00  0.0000000E+00
  0.4200000E+03 -0.3261902E+00 -0.5761902E+00  0.6955313E+00  0.2823857E+00  0.3044687E+00  0.1236143E+00  0.0000000E+00
  0.4320000E+03 -0.3397657E+00 -0.5897657E+00  0.6915622E+00  0.2807743E+00  0.3084378E+00  0.1252257E+00  0.0000000E+00
  0.4440000E+03 -0.3530509E+00 -0.6030509E+00  0.6877644E+00  0.2792323E+00  0.3122356E+00  0.1267677E+00  0.0000000E+00
  0.4560000E+03 -0.3660659E+00 -0.6160659E+00  0.6841237E+00  0.2777542E+00  0.3158763E+00  0.1282458E+00  0.0000000E+00
  0.4680000E+03 -0.3788280E+00 -0.6288280E+00  0.6806279E+00  0.2763349E+00  0.3193721E+00  0.1296651E+00  0.0000000E+00
  0.4800000E+03 -0.3913531E+00 -0.6413531E+00  0.6772661E+00  0.2749700E+00  0.3227339E+00  0.1310300E+00  0.0000000E+00
  0.4920000E+03 -0.4036552E+00 -0.6536552E+00  0.6740286E+00  0.2736556E+00  0.3259714E+00  0.1323444E+00  0.0000000E+00
  0.5040000E+03 -0.4157470E+00 -0.6657470E+00  0.6709067E+00  0.2723881E+00  0.3290933E+00  0.1336119E+00  0.0000000E+00
  0.5160000E+03 -0.4276398E+00 -0.6776398E+00  0.6678926E+00  0.2711644E+00  0.3321074E+00  0.1348356E+00  0.0000000E+00
  0.5280000E+03 -0.4393442E+00 -0.6893442E+00  0.6649793E+00  0.2699816E+00  0.3350207E+00  0.1360184E+00  0.0000000E+00
  0.5400000E+03 -0.4508695E+00 -0.7008695E+00  0.6621605E+00  0.2688372E+00  0.3378395E+00  0.1371628E+00  0.0000000E+00
  0.5520000E+03 -0.4622245E+00 -0.7122245E+00  0.6594305E+00  0.2677288E+00  0.3405695E+00  0.1382712E+00  0.0000000E+00
  0.5640000E+03 -0.4734171E+00 -0.7234171E+00  0.6567840E+00  0.2666543E+00  0.3432160E+00  0.1393457E+00  0.0000000E+00
  0.5760000E+03 -0.4844548E+00 -0.7344548E+00  0.6542162E+00  0.2656118E+00  0.3457838E+00  0.1403882E+00  0.0000000E+00
  0.5880000E+03 -0.4953441E+00 -0.7453441E+00  0.6517227E+00  0.2645994E+00  0.3482773E+00  0.1414006E+00  0.0000000E+00
  0.6000000E+03 -0.5060915E+00 -0.7560915E+00  0.6492996E+00  0.2636156E+00  0.3507004E+00  0.1423844E+00  0.0000000E+00
  0.6120000E+03 -0.5167028E+00 -0.7667028E+00  0.6469431E+00  0.2626589E+00  0.3530569E+00  0.1433411E+00  0.0000000E+00
  0.6240000E+03 -0.5271833E+00 -0.7771833E+00  0.6446499E+00  0.2617278E+00  0.3553501E+00  0.1442722E+00  0.0000000E+00
  0.6360000E+03 -0.5375381E+00 -0.7875381E+00  0.6424167E+00  0.2608212E+00  0.3575833E+00  0.1451788E+00  0.0000000E+00
  0.6480000E+03 -0.5477718E+00 -0.7977718E+00  0.6402406E+00  0.2599377E+00  0.3597594E+00  0.1460623E+00  0.0000000E+00
  0.6600000E+03 -0.5578890E+00 -0.8078890E+00  0.6381189E+00  0.2590763E+00  0.3618811E+00  0.1469237E+00  0.0000000E+00
  0.6720000E+03 -0.5678937E+00 -0.8178937E+00  0.6360492E+00  0.2582360E+00  0.3639508E+00  0.1477640E+00  0.0000000E+00
  0.6840000E+03  0.1310843E+00 -0.1189157E+00  0.9166084E+00  0.3721430E+00  0.8339165E-01  0.3385701E-01  0.0000000E+00
  0.6960000E+03  0.1835400E+00 -0.6645995E-01  0.9569990E+00  0.3885416E+00  0.4300099E-01  0.1745840E-01  0.0000000E+00
  0.7080000E+03  0.4691765E-01 -0.2030823E+00  0.8580447E+00  0.3483662E+00  0.1419553E+00  0.5763385E-01  0.0000000E+00
  0.7200000E+03 -0.1591924E-01 -0.2659192E+00  0.8208059E+00  0.3332472E+00  0.1791941E+00  0.7275280E-01  0.0000000E+00
  0.7320000E+03 -0.5965426E-01 -0.3096543E+00  0.7978656E+00  0.3239334E+00  0.2021344E+00  0.8206657E-01  0.0000000E+00
  0.7440000E+03 -0.9412519E-01 -0.3441252E+00  0.7812998E+00  0.3172077E+00  0.2187002E+00  0.8879227E-01  0.0000000E+00
  0.7560000E+03 -0.1230736E+00 -0.3730736E+00  0.7683147E+00  0.3119358E+00  0.2316853E+00  0.9406424E-01  0.0000000E+00
  0.7680000E+03 -0.1483571E+00 -0.3983571E+00  0.7576052E+00  0.3075877E+00  0.2423948E+00  0.9841230E-01  0.0000000E+00
  0.7800000E+03 -0.1710428E+00 -0.4210428E+00  0.7484591E+00  0.3038744E+00  0.2515409E+00  0.1021256E+00  0.0000000E+00
  0.7920000E+03 -0.1918016E+00 -0.4418016E+00  0.7404474E+00  0.3006216E+00  0.2595526E+00  0.1053784E+00  0.0000000E+00
  0.8040000E+03 -0.2110817E+00 -0.4610817E+00  0.7332935E+00  0.2977172E+00  0.2667065E+00  0.1082828E+00  0.0000000E+00
  0.8160000E+03 -0.2291947E+00 -0.4791947E+00  0.7268102E+00  0.2950850E+00  0.2731898E+00  0.1109150E+00  0.0000000E+00
  0.8280000E+03 -0.2463644E+00 -0.4963644E+00  0.7208658E+00  0.2926715E+00  0.2791342E+00  0.1133285E+00  0.0000000E+00
  0.8400000E+03 -0.2627550E+00 -0.5127550E+00  0.7153648E+00  0.2904381E+00  0.2846352E+00  0.1155619E+00  0.0000000E+00
  0.8520000E+03  0.1561580E+00 -0.9384196E-01  0.9357482E+00  0.3799138E+00  0.6425181E-01  0.2608623E-01  0.0000000E+00
  0.8640000E+03  0.1943290E+00 -0.5567096E-01  0.9652916E+00  0.3919084E+00  0.3470839E-01  0.1409161E-01  0.0000000E+00
  0.8760000E+03  0.7055499E-01 -0.1794450E+00  0.8734821E+00  0.3546337E+00  0.1265179E+00  0.5136627E-01  0.0000000E+00
  0.8880000E+03  0.1417165E-01 -0.2358284E+00  0.8379712E+00  0.3402163E+00  0.1620288E+00  0.6578368E-01  0.0000000E+00
  0.9000000E+03 -0.2564308E-01 -0.2756431E+00  0.8155070E+00  0.3310959E+00  0.1844930E+00  0.7490415E-01  0.0000000E+00
  0.9120000E+03 -0.5765689E-01 -0.3076569E+00  0.7988647E+00  0.3243391E+00  0.2011353E+00  0.8166092E-01  0.0000000E+00
  0.9240000E+03 -0.8512302E-01 -0.3351230E+00  0.7855058E+00  0.3189154E+00  0.2144942E+00  0.8708465E-01  0.0000000E+00
  0.9360000E+03 -0.1096086E+00 -0.3596086E+00  0.7742546E+00  0.3143474E+00  0.2257454E+00  0.9165262E-01  0.0000000E+00
  0.9480000E+03 -0.1319825E+00 -0.3819825E+00  0.7644765E+00  0.3103775E+00  0.2355235E+00  0.9562255E-01  0.0000000E+00
  0.9600000E+03 -0.1527721E+00 -0.4027721E+00  0.7557919E+00  0.3068515E+00  0.2442081E+00  0.9914848E-01  0.0000000E+00
  0.9720000E+03 -0.1723198E+00 -0.4223198E+00  0.7479566E+00  0.3036704E+00  0.2520434E+00  0.1023296E+00  0.0000000E+00
  0.9840000E+03 -0.1908599E+00 -0.4408599E+00  0.7408038E+00  0.3007663E+00  0.2591962E+00  0.1052337E+00  0.0000000E+00
  0.9960000E+03 -0.2085598E+00 -0.4585598E+00  0.7342141E+00  0.2980909E+00  0.2657859E+00  0.1079091E+00  0.0000000E+00
  0.1008000E+04 -0.2255437E+00 -0.4755437E+00  0.7280992E+00  0.2956083E+00  0.2719008E+00  0.1103917E+00  0.0000000E+00
  0.1020000E+04  0.1601354E+00 -0.8986461E-01  0.9388268E+00  0.3811637E+00  0.6117318E-01  0.2483631E-01  0.0000000E+00
  0.1032000E+04  0.1959825E+00 -0.5401754E-01  0.9665497E+00  0.3924192E+00  0.3345034E-01  0.1358084E-01  0.0000000E+00
  0.1044000E+04  0.7400143E-01 -0.1759986E+00  0.8758004E+00  0.3555750E+00  0.1241996E+00  0.5042502E-01  0.0000000E+00
  0.1056000E+04  0.1840107E-01 -0.2315989E+00  0.8404803E+00  0.3412350E+00  0.1595197E+00  0.6476501E-01  0.0000000E+00
  0.1068000E+04 -0.2103281E-01 -0.2710328E+00  0.8180047E+00  0.3321099E+00  0.1819953E+00  0.7389010E-01  0.0000000E+00
  0.1080000E+04 -0.5288399E-01 -0.3028840E+00  0.8012704E+00  0.3253158E+00  0.1987296E+00  0.8068420E-01  0.0000000E+00
  0.1092000E+04 -0.8031499E-01 -0.3303150E+00  0.7877863E+00  0.3198412E+00  0.2122137E+00  0.8615877E-01  0.0000000E+00
  0.1104000E+04 -0.1048400E+00 -0.3548400E+00  0.7763995E+00  0.3152182E+00  0.2236005E+00  0.9078180E-01  0.0000000E+00
  0.1116000E+04 -0.1272952E+00 -0.3772952E+00  0.7664869E+00  0.3111937E+00  0.2335131E+00  0.9480630E-01  0.0000000E+00
  0.1128000E+04 -0.1481883E+00 -0.3981883E+00  0.7576748E+00  0.3076160E+00  0.2423252E+00  0.9838401E-01  0.0000000E+00
  0.1140000E+04 -0.1678495E+00 -0.4178495E+00  0.7497212E+00  0.3043868E+00  0.2502788E+00  0.1016132E+00  0.0000000E+00
  0.1152000E+04 -0.1865058E+00 -0.4365058E+00  0.7424601E+00  0.3014388E+00  0.2575399E+00  0.1045612E+00  0.0000000E+00
  0.1164000E+04 -0.2043205E+00 -0.4543205E+00  0.7357718E+00  0.2987234E+00  0.2642282E+00  0.1072766E+00  0.0000000E+00
  0.1176000E+04 -0.2214154E+00 -0.4714154E+00  0.7295674E+00  0.2962044E+00  0.2704326E+00  0.1097956E+00  0.0000000E+00
  0.1188000E+04  0.1605862E+00 -0.8941384E-01  0.9391762E+00  0.3813055E+00  0.6082379E-01  0.2469446E-01  0.0000000E+00
  0.1200000E+04  0.1961653E+00 -0.5383466E-01  0.9666885E+00  0.3924755E+00  0.3331145E-01  0.1352445E-01  0.0000000E+00
  0.1212000E+04  0.7437450E-01 -0.1756255E+00  0.8760524E+00  0.3556773E+00  0.1239476E+00  0.5032271E-01  0.0000000E+00
  0.1224000E+04  0.1885294E-01 -0.2311471E+00  0.8407498E+00  0.3413444E+00  0.1592502E+00  0.6465559E-01  0.0000000E+00
  0.1236000E+04 -0.2054531E-01 -0.2705453E+00  0.8182703E+00  0.3322178E+00  0.1817297E+00  0.7378225E-01  0.0000000E+00
  0.1248000E+04 -0.5238343E-01 -0.3023834E+00  0.8015242E+00  0.3254188E+00  0.1984758E+00  0.8058116E-01  0.0000000E+00
  0.1260000E+04 -0.7981404E-01 -0.3298140E+00  0.7880253E+00  0.3199383E+00  0.2119747E+00  0.8606174E-01  0.0000000E+00
  0.1272000E+04 -0.1043457E+00 -0.3543457E+00  0.7766231E+00  0.3153090E+00  0.2233769E+00  0.9069103E-01  0.0000000E+00
  0.1284000E+04 -0.1268113E+00 -0.3768113E+00  0.7666956E+00  0.3112784E+00  0.2333044E+00  0.9472157E-01  0.0000000E+00
  0.1296000E+04 -0.1477165E+00 -0.3977165E+00  0.7578696E+00  0.3076951E+00  0.2421304E+00  0.9830493E-01  0.0000000E+00
  0.1308000E+04 -0.1673905E+00 -0.4173905E+00  0.7499033E+00  0.3044607E+00  0.2500967E+00  0.1015393E+00  0.0000000E+00
  0.1320000E+04 -0.1860597E+00 -0.4360597E+00  0.7426306E+00  0.3015080E+00  0.2573694E+00  0.1044920E+00  0.0000000E+00
  0.1332000E+04 -0.2038869E+00 -0.4538869E+00  0.7359319E+00  0.2987884E+00  0.2640681E+00  0.1072116E+00  0.0000000E+00
  0.1344000E+04 -0.2209936E+00 -0.4709936E+00  0.7297180E+00  0.2962655E+00  0.2702820E+00  0.1097345E+00  0.0000000E+00
  0.1356000E+04  0.1606323E+00 -0.8936767E-01  0.9392120E+00  0.3813201E+00  0.6078800E-01  0.2467993E-01  0.0000000E+00
  0.1368000E+04  0.1961840E+00 -0.5381598E-01  0.9667027E+00  0.3924813E+00  0.3329727E-01  0.1351869E-01  0.0000000E+00
  0.1380000E+04  0.7441251E-01 -0.1755875E+00  0.8760781E+00  0.3556877E+00  0.1239219E+00  0.5031229E-01  0.0000000E+00
  0.1392000E+04  0.1889891E-01 -0.2311011E+00  0.8407772E+00  0.3413555E+00  0.1592228E+00  0.6464445E-01  0.0000000E+00
  0.1404000E+04 -0.2049576E-01 -0.2704958E+00  0.8182973E+00  0.3322287E+00  0.1817027E+00  0.7377128E-01  0.0000000E+00
  0.1416000E+04 -0.5233261E-01 -0.3023326E+00  0.8015500E+00  0.3254293E+00  0.1984500E+00  0.8057069E-01  0.0000000E+00
  0.1428000E+04 -0.7976321E-01 -0.3297632E+00  0.7880495E+00  0.3199481E+00  0.2119505E+00  0.8605189E-01  0.0000000E+00
  0.1440000E+04 -0.1042955E+00 -0.3542955E+00  0.7766458E+00  0.3153182E+00  0.2233542E+00  0.9068182E-01  0.0000000E+00
  0.1452000E+04 -0.1267622E+00 -0.3767622E+00  0.7667168E+00  0.3112870E+00  0.2332832E+00  0.9471298E-01  0.0000000E+00
  0.1464000E+04 -0.1476687E+00 -0.3976687E+00  0.7578894E+00  0.3077031E+00  0.2421106E+00  0.9829691E-01  0.0000000E+00
  0.1476000E+04 -0.1673440E+00 -0.4173440E+00  0.7499218E+00  0.3044682E+00  0.2500782E+00  0.1015318E+00  0.0000000E+00
  0.1488000E+04 -0.1860145E+00 -0.4360145E+00  0.7426478E+00  0.3015150E+00  0.2573522E+00  0.1044850E+00  0.0000000E+00
  0.1500000E+04 -0.2038429E+00 -0.4538429E+00  0.7359481E+00  0.2987949E+00  0.2640519E+00  0.1072051E+00  0.0000000E+00
  0.1512000E+04 -0.2209509E+00 -0.4709509E+00  0.7297333E+00  0.2962717E+00  0.2702667E+00  0.1097283E+00  0.0000000E+00
  0.1524000E+04  0.1606370E+00 -0.8936300E-01  0.9392156E+00  0.3813215E+00  0.6078438E-01  0.2467846E-01  0.0000000E+00
  0.1536000E+04  0.1961859E+00 -0.5381409E-01  0.9667042E+00  0.3924819E+00  0.3329584E-01  0.1351811E-01  0.0000000E+00
  0.1548000E+04  0.7441636E-01 -0.1755836E+00  0.8760807E+00  0.3556888E+00  0.1239193E+00  0.5031123E-01  0.0000000E+00
  0.1560000E+04  0.1890357E-01 -0.2310964E+00  0.8407800E+00  0.3413567E+00  0.1592200E+00  0.6464333E-01  0.0000000E+00
  0.1572000E+04 -0.2049075E-01 -0.2704907E+00  0.8183001E+00  0.3322298E+00  0.1816999E+00  0.7377017E-01  0.0000000E+00
  0.1584000E+04 -0.5232746E-01 -0.3023275E+00  0.8015526E+00  0.3254304E+00  0.1984474E+00  0.8056963E-01  0.0000000E+00
  0.1596000E+04 -0.7975806E-01 -0.3297581E+00  0.7880520E+00  0.3199491E+00  0.2119480E+00  0.8605089E-01  0.0000000E+00
  0.1608000E+04 -0.1042904E+00 -0.3542904E+00  0.7766481E+00  0.3153191E+00  0.2233519E+00  0.9068088E-01  0.0000000E+00
  0.1620000E+04 -0.1267572E+00 -0.3767572E+00  0.7667190E+00  0.3112879E+00  0.2332810E+00  0.9471211E-01  0.0000000E+00
  0.1632000E+04 -0.1476639E+00 -0.3976639E+00  0.7578914E+00  0.3077039E+00  0.2421086E+00  0.9829610E-01  0.0000000E+00
  0.1644000E+04 -0.1673393E+00 -0.4173393E+00  0.7499236E+00  0.3044690E+00  0.2500764E+00  0.1015310E+00  0.0000000E+00