title = "dataset falk221"
variables = "time", "h_w", "p_w", "s_w", "theta_a", "s_a", "theta_g", "q_root"
zone t = "Flow variables, volume =   120, delx =  1.00E+00, dely =  1.00E+00, delz =  1.25E-03", f=point
  0.1000000E-05 -0.2521619E+00 -0.4009119E+00  0.7565539E+00  0.3071609E+00  0.2434461E+00  0.9883911E-01  0.0000000E+00
  0.2000000E-05 -0.2521619E+00 -0.4009119E+00  0.7565539E+00  0.3071609E+00  0.2434461E+00  0.9883911E-01  0.0000000E+00
  0.3558387E-05 -0.2521619E+00 -0.4009119E+00  0.7565539E+00  0.3071609E+00  0.2434461E+00  0.9883911E-01  0.0000000E+00
  0.6181544E-05 -0.2521619E+00 -0.4009119E+00  0.7565539E+00  0.3071609E+00  0.2434461E+00  0.9883911E-01  0.0000000E+00
  0.1026944E-04 -0.2521619E+00 -0.4009119E+00  0.7565539E+00  0.3071609E+00  0.2434461E+00  0.9883911E-01  0.0000000E+00
  0.1663996E-04 -0.2521619E+00 -0.4009119E+00  0.7565539E+00  0.3071609E+00  0.2434461E+00  0.9883912E-01  0.0000000E+00
  0.2656771E-04 -0.2521619E+00 -0.4009119E+00  0.7565539E+00  0.3071609E+00  0.2434461E+00  0.9883912E-01  0.0000000E+00
  0.4203898E-04 -0.2521620E+00 -0.4009120E+00  0.7565539E+00  0.3071609E+00  0.2434461E+00  0.9883912E-01  0.0000000E+00
  0.6614922E-04 -0.2521620E+00 -0.4009120E+00  0.7565539E+00  0.3071609E+00  0.2434461E+00  0.9883913E-01  0.0000000E+00
  0.1037223E-03 -0.2521621E+00 -0.4009121E+00  0.7565538E+00  0.3071609E+00  0.2434462E+00  0.9883914E-01  0.0000000E+00
  0.1622757E-03 -0.2521622E+00 -0.4009122E+00  0.7565538E+00  0.3071608E+00  0.2434462E+00  0.9883916E-01  0.0000000E+00
  0.2535247E-03 -0.2521623E+00 -0.4009123E+00  0.7565537E+00  0.3071608E+00  0.2434463E+00  0.9883918E-01  0.0000000E+00
  0.3865417E-03 -0.2521626E+00 -0.4009126E+00  0.7565536E+00  0.3071608E+00  0.2434464E+00  0.9883922E-01  0.0000000E+00
  0.5804457E-03 -0.2521629E+00 -0.4009129E+00  0.7565535E+00  0.3071607E+00  0.2434465E+00  0.9883928E-01  0.0000000E+00
  0.8631069E-03 -0.2521634E+00 -0.4009134E+00  0.7565533E+00  0.3071606E+00  0.2434467E+00  0.9883935E-01  0.0000000E+00
  0.1275153E-02 -0.2521641E+00 -0.4009141E+00  0.7565530E+00  0.3071605E+00  0.2434470E+00  0.9883947E-01  0.0000000E+00
  0.1875808E-02 -0.2521651E+00 -0.4009151E+00  0.7565526E+00  0.3071604E+00  0.2434474E+00  0.9883964E-01  0.0000000E+00
  0.2751406E-02 -0.2521666E+00 -0.4009166E+00  0.7565520E+00  0.3071601E+00  0.2434480E+00  0.9883989E-01  0.0000000E+00
  0.3954800E-02 -0.2521686E+00 -0.4009186E+00  0.7565512E+00  0.3071598E+00  0.2434488E+00  0.9884023E-01  0.0000000E+00
  0.5608706E-02 -0.2521714E+00 -0.4009214E+00  0.7565500E+00  0.3071593E+00  0.2434500E+00  0.9884069E-01  0.0000000E+00
  0.7881784E-02 -0.2521752E+00 -0.4009252E+00  0.7565484E+00  0.3071587E+00  0.2434516E+00  0.9884133E-01  0.0000000E+00
  0.1100583E-01 -0.2521805E+00 -0.4009305E+00  0.7565463E+00  0.3071578E+00  0.2434537E+00  0.9884221E-01  0.0000000E+00
  0.1507909E-01 -0.2521874E+00 -0.4009374E+00  0.7565434E+00  0.3071566E+00  0.2434566E+00  0.9884336E-01  0.0000000E+00
  0.2067724E-01 -0.2521969E+00 -0.4009469E+00  0.7565395E+00  0.3071551E+00  0.2434605E+00  0.9884494E-01  0.0000000E+00
  0.2797635E-01 -0.2522093E+00 -0.4009593E+00  0.7565345E+00  0.3071530E+00  0.2434655E+00  0.9884700E-01  0.0000000E+00
  0.3749322E-01 -0.2522254E+00 -0.4009754E+00  0.7565279E+00  0.3071503E+00  0.2434721E+00  0.9884969E-01  0.0000000E+00
  0.4990169E-01 -0.2522464E+00 -0.4009964E+00  0.7565192E+00  0.3071468E+00  0.2434808E+00  0.9885319E-01  0.0000000E+00
  0.6467073E-01 -0.2522714E+00 -0.4010214E+00  0.7565090E+00  0.3071426E+00  0.2434910E+00  0.9885736E-01  0.0000000E+00
  0.8224941E-01 -0.2523012E+00 -0.4010512E+00  0.7564968E+00  0.3071377E+00  0.2435032E+00  0.9886231E-01  0.0000000E+00
  0.1031722E+00 -0.2523366E+00 -0.4010866E+00  0.7564822E+00  0.3071318E+00  0.2435178E+00  0.9886821E-01  0.0000000E+00
  0.1250718E+00 -0.2523737E+00 -0.4011237E+00  0.7564670E+00  0.3071256E+00  0.2435330E+00  0.9887439E-01  0.0000000E+00
  0.1500969E+00 -0.2524160E+00 -0.4011660E+00  0.7564496E+00  0.3071186E+00  0.2435504E+00  0.9888145E-01  0.0000000E+00
  0.1734499E+00 -0.2524556E+00 -0.4012056E+00  0.7564334E+00  0.3071120E+00  0.2435666E+00  0.9888803E-01  0.0000000E+00
  0.2012455E+00 -0.2525026E+00 -0.4012526E+00  0.7564141E+00  0.3071041E+00  0.2435859E+00  0.9889586E-01  0.0000000E+00
  0.2263631E+00 -0.2525451E+00 -0.4012951E+00  0.7563967E+00  0.3070971E+00  0.2436033E+00  0.9890294E-01  0.0000000E+00
  0.2562591E+00 -0.2525957E+00 -0.4013457E+00  0.7563760E+00  0.3070886E+00  0.2436240E+00  0.9891136E-01  0.0000000E+00
  0.2844061E+00 -0.2526433E+00 -0.4013933E+00  0.7563564E+00  0.3070807E+00  0.2436436E+00  0.9891929E-01  0.0000000E+00
  0.3179079E+00 -0.2527000E+00 -0.4014500E+00  0.7563332E+00  0.3070713E+00  0.2436668E+00  0.9892873E-01  0.0000000E+00
  0.3487913E+00 -0.2527523E+00 -0.4015023E+00  0.7563118E+00  0.3070626E+00  0.2436882E+00  0.9893742E-01  0.0000000E+00
  0.3855500E+00 -0.2528144E+00 -0.4015644E+00  0.7562863E+00  0.3070522E+00  0.2437137E+00  0.9894777E-01  0.0000000E+00
  0.4202048E+00 -0.2528730E+00 -0.4016230E+00  0.7562623E+00  0.3070425E+00  0.2437377E+00  0.9895752E-01  0.0000000E+00
  0.4614522E+00 -0.2529428E+00 -0.4016928E+00  0.7562337E+00  0.3070309E+00  0.2437663E+00  0.9896912E-01  0.0000000E+00
  0.4993969E+00 -0.2530069E+00 -0.4017569E+00  0.7562074E+00  0.3070202E+00  0.2437926E+00  0.9897979E-01  0.0000000E+00
  0.5445602E+00 -0.2530833E+00 -0.4018333E+00  0.7561761E+00  0.3070075E+00  0.2438239E+00  0.9899249E-01  0.0000000E+00
  0.5873792E+00 -0.2531556E+00 -0.4019056E+00  0.7561465E+00  0.3069955E+00  0.2438535E+00  0.9900453E-01  0.0000000E+00
  0.6383440E+00 -0.2532418E+00 -0.4019918E+00  0.7561112E+00  0.3069812E+00  0.2438888E+00  0.9901884E-01  0.0000000E+00
  0.6851412E+00 -0.2533208E+00 -0.4020708E+00  0.7560788E+00  0.3069680E+00  0.2439212E+00  0.9903199E-01  0.0000000E+00
  0.7408411E+00 -0.2534149E+00 -0.4021649E+00  0.7560403E+00  0.3069524E+00  0.2439597E+00  0.9904763E-01  0.0000000E+00
  0.7941860E+00 -0.2535050E+00 -0.4022550E+00  0.7560035E+00  0.3069374E+00  0.2439965E+00  0.9906260E-01  0.0000000E+00
  0.8576791E+00 -0.2536122E+00 -0.4023622E+00  0.7559596E+00  0.3069196E+00  0.2440404E+00  0.9908041E-01  0.0000000E+00
  0.9145187E+00 -0.2537081E+00 -0.4024581E+00  0.7559203E+00  0.3069037E+00  0.2440797E+00  0.9909634E-01  0.0000000E+00
  0.9821713E+00 -0.2538223E+00 -0.4025723E+00  0.7558736E+00  0.3068847E+00  0.2441264E+00  0.9911530E-01  0.0000000E+00
  0.1048797E+01 -0.2539347E+00 -0.4026847E+00  0.7558277E+00  0.3068660E+00  0.2441723E+00  0.9913396E-01  0.0000000E+00
  0.1128098E+01 -0.2540684E+00 -0.4028184E+00  0.7557730E+00  0.3068438E+00  0.2442270E+00  0.9915616E-01  0.0000000E+00
  0.1196707E+01 -0.2541841E+00 -0.4029341E+00  0.7557257E+00  0.3068246E+00  0.2442743E+00  0.9917536E-01  0.0000000E+00
  0.1282000E+01 -0.2543278E+00 -0.4030778E+00  0.7556670E+00  0.3068008E+00  0.2443330E+00  0.9919921E-01  0.0000000E+00
  0.1360931E+01 -0.2544608E+00 -0.4032108E+00  0.7556127E+00  0.3067787E+00  0.2443873E+00  0.9922126E-01  0.0000000E+00
  0.1454877E+01 -0.2546189E+00 -0.4033689E+00  0.7555481E+00  0.3067525E+00  0.2444519E+00  0.9924748E-01  0.0000000E+00
  0.1542945E+01 -0.2547670E+00 -0.4035170E+00  0.7554876E+00  0.3067280E+00  0.2445124E+00  0.9927204E-01  0.0000000E+00
  0.1647767E+01 -0.2549431E+00 -0.4036931E+00  0.7554157E+00  0.3066988E+00  0.2445843E+00  0.9930122E-01  0.0000000E+00
  0.1743941E+01 -0.2551044E+00 -0.4038544E+00  0.7553499E+00  0.3066721E+00  0.2446501E+00  0.9932794E-01  0.0000000E+00
  0.1858412E+01 -0.2552959E+00 -0.4040459E+00  0.7552718E+00  0.3066404E+00  0.2447282E+00  0.9935964E-01  0.0000000E+00
  0.1966664E+01 -0.2554762E+00 -0.4042262E+00  0.7551983E+00  0.3066105E+00  0.2448017E+00  0.9938949E-01  0.0000000E+00
  0.2095510E+01 -0.2556894E+00 -0.4044394E+00  0.7551114E+00  0.3065752E+00  0.2448886E+00  0.9942477E-01  0.0000000E+00
  0.2212727E+01 -0.2558818E+00 -0.4046318E+00  0.7550330E+00  0.3065434E+00  0.2449670E+00  0.9945659E-01  0.0000000E+00
  0.2352243E+01 -0.2561074E+00 -0.4048574E+00  0.7549412E+00  0.3065061E+00  0.2450588E+00  0.9949389E-01  0.0000000E+00
  0.2486033E+01 -0.2563196E+00 -0.4050696E+00  0.7548548E+00  0.3064710E+00  0.2451452E+00  0.9952896E-01  0.0000000E+00
  0.2645276E+01 -0.2565641E+00 -0.4053141E+00  0.7547553E+00  0.3064307E+00  0.2452447E+00  0.9956934E-01  0.0000000E+00
  0.2786879E+01 -0.2567732E+00 -0.4055232E+00  0.7546703E+00  0.3063961E+00  0.2453297E+00  0.9960385E-01  0.0000000E+00
  0.2962915E+01 -0.2570157E+00 -0.4057657E+00  0.7545717E+00  0.3063561E+00  0.2454283E+00  0.9964387E-01  0.0000000E+00
  0.3119265E+01 -0.2572138E+00 -0.4059638E+00  0.7544913E+00  0.3063235E+00  0.2455087E+00  0.9967655E-01  0.0000000E+00
  0.3313634E+01 -0.2574252E+00 -0.4061752E+00  0.7544054E+00  0.3062886E+00  0.2455946E+00  0.9971141E-01  0.0000000E+00
  0.3486309E+01 -0.2575792E+00 -0.4063292E+00  0.7543429E+00  0.3062632E+00  0.2456571E+00  0.9973679E-01  0.0000000E+00
  0.3700973E+01 -0.2577045E+00 -0.4064545E+00  0.7542920E+00  0.3062426E+00  0.2457080E+00  0.9975743E-01  0.0000000E+00
  0.3892106E+01 -0.2577528E+00 -0.4065028E+00  0.7542724E+00  0.3062346E+00  0.2457276E+00  0.9976539E-01  0.0000000E+00
  0.4129715E+01 -0.2576926E+00 -0.4064426E+00  0.7542969E+00  0.3062445E+00  0.2457031E+00  0.9975548E-01  0.0000000E+00
  0.4340986E+01 -0.2575269E+00 -0.4062769E+00  0.7543641E+00  0.3062718E+00  0.2456359E+00  0.9972817E-01  0.0000000E+00
  0.4603630E+01 -0.2571130E+00 -0.4058630E+00  0.7545322E+00  0.3063401E+00  0.2454678E+00  0.9965992E-01  0.0000000E+00
  0.4838353E+01 -0.2565509E+00 -0.4053009E+00  0.7547607E+00  0.3064328E+00  0.2452393E+00  0.9956715E-01  0.0000000E+00
  0.5130153E+01 -0.2555051E+00 -0.4042551E+00  0.7551865E+00  0.3066057E+00  0.2448135E+00  0.9939427E-01  0.0000000E+00
  0.5389104E+01 -0.2542683E+00 -0.4030183E+00  0.7556913E+00  0.3068107E+00  0.2443087E+00  0.9918933E-01  0.0000000E+00
  0.5711023E+01 -0.2521896E+00 -0.4009396E+00  0.7565425E+00  0.3071563E+00  0.2434575E+00  0.9884373E-01  0.0000000E+00
  0.6001074E+01 -0.2498338E+00 -0.3985838E+00  0.7575117E+00  0.3075497E+00  0.2424883E+00  0.9845026E-01  0.0000000E+00
  0.6361655E+01 -0.2460899E+00 -0.3948399E+00  0.7590615E+00  0.3081790E+00  0.2409385E+00  0.9782102E-01  0.0000000E+00
  0.6678745E+01 -0.2421315E+00 -0.3908815E+00  0.7607133E+00  0.3088496E+00  0.2392867E+00  0.9715042E-01  0.0000000E+00
  0.7092181E+01 -0.2357954E+00 -0.3845454E+00  0.7633855E+00  0.3099345E+00  0.2366145E+00  0.9606549E-01  0.0000000E+00
  0.7426029E+01 -0.2299167E+00 -0.3786667E+00  0.7658966E+00  0.3109540E+00  0.2341034E+00  0.9504596E-01  0.0000000E+00
  0.7912692E+01 -0.2197865E+00 -0.3685365E+00  0.7702973E+00  0.3127407E+00  0.2297027E+00  0.9325931E-01  0.0000000E+00
  0.8256939E+01 -0.2119180E+00 -0.3606680E+00  0.7737811E+00  0.3141551E+00  0.2262189E+00  0.9184488E-01  0.0000000E+00
  0.8793411E+01 -0.1981556E+00 -0.3469056E+00  0.7800173E+00  0.3166870E+00  0.2199827E+00  0.8931298E-01  0.0000000E+00
  0.9215810E+01 -0.1866290E+00 -0.3353790E+00  0.7853850E+00  0.3188663E+00  0.2146150E+00  0.8713367E-01  0.0000000E+00
  0.9831557E+01 -0.1687952E+00 -0.3175452E+00  0.7939615E+00  0.3223484E+00  0.2060385E+00  0.8365164E-01  0.0000000E+00
  0.1028309E+02 -0.1555131E+00 -0.3042631E+00  0.8005727E+00  0.3250325E+00  0.1994273E+00  0.8096750E-01  0.0000000E+00
  0.1098676E+02 -0.1347492E+00 -0.2834992E+00  0.8113108E+00  0.3293922E+00  0.1886892E+00  0.7660780E-01  0.0000000E+00
  0.1149640E+02 -0.1201035E+00 -0.2688535E+00  0.8191945E+00  0.3325930E+00  0.1808055E+00  0.7340702E-01  0.0000000E+00
  0.1229062E+02 -0.9840087E-01 -0.2471509E+00  0.8313729E+00  0.3375374E+00  0.1686271E+00  0.6846260E-01  0.0000000E+00
  0.1288354E+02 -0.8320774E-01 -0.2319577E+00  0.8402665E+00  0.3411482E+00  0.1597335E+00  0.6485182E-01  0.0000000E+00
  0.1380754E+02 -0.6175137E-01 -0.2105014E+00  0.8533649E+00  0.3464662E+00  0.1466351E+00  0.5953383E-01  0.0000000E+00
  0.1445315E+02 -0.4807632E-01 -0.1968263E+00  0.8620520E+00  0.3499931E+00  0.1379480E+00  0.5600687E-01  0.0000000E+00
  0.1545926E+02 -0.2934369E-01 -0.1780937E+00  0.8743890E+00  0.3550020E+00  0.1256110E+00  0.5099805E-01  0.0000000E+00
  0.1629646E+02 -0.1556610E-01 -0.1643161E+00  0.8837866E+00  0.3588174E+00  0.1162134E+00  0.4718264E-01  0.0000000E+00
  0.1744708E+02  0.6084821E-03 -0.1481415E+00  0.8951643E+00  0.3634367E+00  0.1048357E+00  0.4256328E-01  0.0000000E+00
  0.1843659E+02  0.1265139E-01 -0.1360986E+00  0.9038693E+00  0.3669709E+00  0.9613075E-01  0.3902908E-01  0.0000000E+00
  0.1979653E+02  0.2644492E-01 -0.1223051E+00  0.9140678E+00  0.3711115E+00  0.8593215E-01  0.3488845E-01  0.0000000E+00
  0.2104404E+02  0.3712046E-01 -0.1116295E+00  0.9221116E+00  0.3743773E+00  0.7788838E-01  0.3162268E-01  0.0000000E+00
  0.2259490E+02  0.4801212E-01 -0.1007379E+00  0.9304324E+00  0.3777556E+00  0.6956756E-01  0.2824443E-01  0.0000000E+00
  0.2400000E+02  0.5627132E-01 -0.9247868E-01  0.9368025E+00  0.3803418E+00  0.6319747E-01  0.2565817E-01  0.0000000E+00
  0.2593112E+02  0.5038484E-01 -0.9836516E-01  0.9322579E+00  0.3784967E+00  0.6774212E-01  0.2750330E-01  0.0000000E+00
  0.2822961E+02  0.3753902E-01 -0.1112110E+00  0.9224294E+00  0.3745063E+00  0.7757059E-01  0.3149366E-01  0.0000000E+00
  0.3096537E+02  0.2229183E-01 -0.1264582E+00  0.9109728E+00  0.3698550E+00  0.8902715E-01  0.3614502E-01  0.0000000E+00
  0.3472530E+02  0.3878169E-02 -0.1448718E+00  0.8975085E+00  0.3643885E+00  0.1024915E+00  0.4161154E-01  0.0000000E+00
  0.4058474E+02 -0.1993387E-01 -0.1686839E+00  0.8807778E+00  0.3575958E+00  0.1192222E+00  0.4840422E-01  0.0000000E+00
  0.4971600E+02 -0.5016622E-01 -0.1989162E+00  0.8607071E+00  0.3494471E+00  0.1392929E+00  0.5655292E-01  0.0000000E+00
  0.6171600E+02 -0.8345419E-01 -0.2322042E+00  0.8401197E+00  0.3410886E+00  0.1598803E+00  0.6491140E-01  0.0000000E+00
  0.7371600E+02 -0.1129599E+00 -0.2617099E+00  0.8231365E+00  0.3341934E+00  0.1768635E+00  0.7180659E-01  0.0000000E+00
  0.8571600E+02 -0.1398181E+00 -0.2885681E+00  0.8086428E+00  0.3283090E+00  0.1913572E+00  0.7769102E-01  0.0000000E+00
  0.9600000E+02 -0.1614183E+00 -0.3101683E+00  0.7976092E+00  0.3238293E+00  0.2023908E+00  0.8217067E-01  0.0000000E+00
  0.1080000E+03 -0.1848946E+00 -0.3336446E+00  0.7862045E+00  0.3191990E+00  0.2137955E+00  0.8680099E-01  0.0000000E+00
  0.1200000E+03 -0.2070427E+00 -0.3557927E+00  0.7759692E+00  0.3150435E+00  0.2240308E+00  0.9095649E-01  0.0000000E+00
  0.1320000E+03 -0.2280785E+00 -0.3768285E+00  0.7666882E+00  0.3112754E+00  0.2333118E+00  0.9472459E-01  0.0000000E+00
  0.1440000E+03 -0.2481645E+00 -0.3969145E+00  0.7582012E+00  0.3078297E+00  0.2417988E+00  0.9817031E-01  0.0000000E+00
  0.1560000E+03 -0.2674268E+00 -0.4161768E+00  0.7503856E+00  0.3046566E+00  0.2496144E+00  0.1013434E+00  0.0000000E+00
  0.1680000E+03 -0.2859654E+00 -0.4347154E+00  0.7431453E+00  0.3017170E+00  0.2568547E+00  0.1042830E+00  0.0000000E+00
  0.1800000E+03 -0.1315655E+00 -0.2803155E+00  0.8130023E+00  0.3300789E+00  0.1869977E+00  0.7592106E-01  0.0000000E+00
  0.1920000E+03  0.1744751E-01 -0.1313025E+00  0.9073888E+00  0.3683999E+00  0.9261119E-01  0.3760014E-01  0.0000000E+00
  0.2040000E+03 -0.1457473E-01 -0.1633247E+00  0.8844733E+00  0.3590962E+00  0.1155267E+00  0.4690383E-01  0.0000000E+00
  0.2160000E+03 -0.5166599E-01 -0.2004160E+00  0.8597458E+00  0.3490568E+00  0.1402542E+00  0.5694321E-01  0.0000000E+00
  0.2280000E+03 -0.8466836E-01 -0.2334184E+00  0.8393979E+00  0.3407956E+00  0.1606021E+00  0.6520444E-01  0.0000000E+00
  0.2400000E+03 -0.1141334E+00 -0.2628834E+00  0.8224845E+00  0.3339287E+00  0.1775155E+00  0.7207130E-01  0.0000000E+00
  0.2520000E+03 -0.1409631E+00 -0.2897131E+00  0.8080444E+00  0.3280660E+00  0.1919556E+00  0.7793399E-01  0.0000000E+00
  0.2640000E+03 -0.1657868E+00 -0.3145368E+00  0.7954418E+00  0.3229494E+00  0.2045582E+00  0.8305063E-01  0.0000000E+00
  0.2760000E+03 -0.1890250E+00 -0.3377750E+00  0.7842581E+00  0.3184088E+00  0.2157419E+00  0.8759119E-01  0.0000000E+00
  0.2880000E+03 -0.2109682E+00 -0.3597182E+00  0.7742056E+00  0.3143275E+00  0.2257944E+00  0.9167253E-01  0.0000000E+00
  0.3000000E+03 -0.2318262E+00 -0.3805762E+00  0.7650776E+00  0.3106215E+00  0.2349224E+00  0.9537850E-01  0.0000000E+00
  0.3120000E+03 -0.2517566E+00 -0.4005066E+00  0.7567203E+00  0.3072284E+00  0.2432797E+00  0.9877155E-01  0.0000000E+00
  0.3240000E+03 -0.2708815E+00 -0.4196315E+00  0.7490159E+00  0.3041005E+00  0.2509841E+00  0.1018995E+00  0.0000000E+00
  0.3360000E+03 -0.2892979E+00 -0.4380479E+00  0.7418718E+00  0.3012000E+00  0.2581282E+00  0.1048000E+00  0.0000000E+00
  0.3480000E+03 -0.3070846E+00 -0.4558346E+00  0.7352140E+00  0.2984969E+00  0.2647860E+00  0.1075031E+00  0.0000000E+00
  0.3600000E+03 -0.3243065E+00 -0.4730565E+00  0.7289824E+00  0.2959668E+00  0.2710176E+00  0.1100332E+00  0.0000000E+00
  0.3720000E+03 -0.3410179E+00 -0.4897679E+00  0.7231271E+00  0.2935896E+00  0.2768729E+00  0.1124104E+00  0.0000000E+00
  0.3840000E+03 -0.3572648E+00 -0.5060148E+00  0.7176069E+00  0.2913484E+00  0.2823931E+00  0.1146516E+00  0.0000000E+00
  0.3960000E+03 -0.3730866E+00 -0.5218366E+00  0.7123868E+00  0.2892290E+00  0.2876132E+00  0.1167710E+00  0.0000000E+00
  0.4080000E+03 -0.3885173E+00 -0.5372673E+00  0.7074369E+00  0.2872194E+00  0.2925631E+00  0.1187806E+00  0.0000000E+00
  0.4200000E+03 -0.4035865E+00 -0.5523365E+00  0.7027319E+00  0.2853091E+00  0.2972681E+00  0.1206909E+00  0.0000000E+00
  0.4320000E+03 -0.4183203E+00 -0.5670703E+00  0.6982495E+00  0.2834893E+00  0.3017505E+00  0.1225107E+00  0.0000000E+00
  0.4440000E+03 -0.4327414E+00 -0.5814914E+00  0.6939706E+00  0.2817520E+00  0.3060294E+00  0.1242480E+00  0.0000000E+00
  0.4560000E+03 -0.4468703E+00 -0.5956203E+00  0.6898782E+00  0.2800906E+00  0.3101218E+00  0.1259094E+00  0.0000000E+00
  0.4680000E+03 -0.4607251E+00 -0.6094751E+00  0.6859576E+00  0.2784988E+00  0.3140424E+00  0.1275012E+00  0.0000000E+00
  0.4800000E+03 -0.4743222E+00 -0.6230722E+00  0.6821956E+00  0.2769714E+00  0.3178044E+00  0.1290286E+00  0.0000000E+00
  0.4920000E+03 -0.4876762E+00 -0.6364262E+00  0.6785805E+00  0.2755037E+00  0.3214195E+00  0.1304963E+00  0.0000000E+00
  0.5040000E+03 -0.5008004E+00 -0.6495504E+00  0.6751019E+00  0.2740914E+00  0.3248981E+00  0.1319086E+00  0.0000000E+00
  0.5160000E+03 -0.5137069E+00 -0.6624569E+00  0.6717503E+00  0.2727306E+00  0.3282497E+00  0.1332694E+00  0.0000000E+00
  0.5280000E+03 -0.5264068E+00 -0.6751568E+00  0.6685173E+00  0.2714180E+00  0.3314827E+00  0.1345820E+00  0.0000000E+00
  0.5400000E+03 -0.5389101E+00 -0.6876601E+00  0.6653953E+00  0.2701505E+00  0.3346047E+00  0.1358495E+00  0.0000000E+00
  0.5520000E+03 -0.5512260E+00 -0.6999760E+00  0.6623773E+00  0.2689252E+00  0.3376227E+00  0.1370748E+00  0.0000000E+00
  0.5640000E+03 -0.5633630E+00 -0.7121130E+00  0.6594571E+00  0.2677396E+00  0.3405429E+00  0.1382604E+00  0.0000000E+00
  0.5760000E+03 -0.5753291E+00 -0.7240791E+00  0.6566288E+00  0.2665913E+00  0.3433712E+00  0.1394087E+00  0.0000000E+00
  0.5880000E+03 -0.5871314E+00 -0.7358814E+00  0.6538873E+00  0.2654782E+00  0.3461127E+00  0.1405218E+00  0.0000000E+00
  0.6000000E+03 -0.5987768E+00 -0.7475268E+00  0.6512276E+00  0.2643984E+00  0.3487724E+00  0.1416016E+00  0.0000000E+00
  0.6120000E+03 -0.6102714E+00 -0.7590214E+00  0.6486455E+00  0.2633501E+00  0.3513545E+00  0.1426499E+00  0.0000000E+00
  0.6240000E+03 -0.6216210E+00 -0.7703710E+00  0.6461367E+00  0.2623315E+00  0.3538633E+00  0.1436685E+00  0.0000000E+00
  0.6360000E+03 -0.6328312E+00 -0.7815812E+00  0.6436975E+00  0.2613412E+00  0.3563025E+00  0.1446588E+00  0.0000000E+00
  0.6480000E+03 -0.6439070E+00 -0.7926570E+00  0.6413244E+00  0.2603777E+00  0.3586756E+00  0.1456223E+00  0.0000000E+00
  0.6600000E+03 -0.6548532E+00 -0.8036032E+00  0.6390141E+00  0.2594397E+00  0.3609859E+00  0.1465603E+00  0.0000000E+00
  0.6720000E+03 -0.6656742E+00 -0.8144242E+00  0.6367638E+00  0.2585261E+00  0.3632362E+00  0.1474739E+00  0.0000000E+00
  0.6840000E+03 -0.4482276E+00 -0.5969776E+00  0.6894901E+00  0.2799330E+00  0.3105099E+00  0.1260670E+00  0.0000000E+00
  0.6960000E+03 -0.1058479E+00 -0.2545979E+00  0.8271256E+00  0.3358130E+00  0.1728744E+00  0.7018701E-01  0.0000000E+00
  0.7080000E+03 -0.9989980E-01 -0.2486498E+00  0.8305122E+00  0.3371879E+00  0.1694878E+00  0.6881206E-01  0.0000000E+00
  0.7200000E+03 -0.1263709E+00 -0.2751209E+00  0.8157886E+00  0.3312102E+00  0.1842114E+00  0.7478983E-01  0.0000000E+00
  0.7320000E+03 -0.1545254E+00 -0.3032754E+00  0.8010722E+00  0.3252353E+00  0.1989278E+00  0.8076470E-01  0.0000000E+00
  0.7440000E+03 -0.1806216E+00 -0.3293716E+00  0.7882365E+00  0.3200240E+00  0.2117635E+00  0.8597596E-01  0.0000000E+00
  0.7560000E+03 -0.2045546E+00 -0.3533046E+00  0.7770947E+00  0.3155005E+00  0.2229053E+00  0.9049954E-01  0.0000000E+00
  0.7680000E+03 -0.2267206E+00 -0.3754706E+00  0.7672749E+00  0.3115136E+00  0.2327251E+00  0.9448639E-01  0.0000000E+00
  0.7800000E+03 -0.2474993E+00 -0.3962493E+00  0.7584767E+00  0.3079415E+00  0.2415233E+00  0.9805846E-01  0.0000000E+00
  0.7920000E+03 -0.2671789E+00 -0.4159289E+00  0.7504842E+00  0.3046966E+00  0.2495158E+00  0.1013034E+00  0.0000000E+00
  0.8040000E+03 -0.2859668E+00 -0.4347168E+00  0.7431447E+00  0.3017168E+00  0.2568553E+00  0.1042832E+00  0.0000000E+00
  0.8160000E+03 -0.3040109E+00 -0.4527609E+00  0.7363481E+00  0.2989573E+00  0.2636519E+00  0.1070427E+00  0.0000000E+00
  0.8280000E+03 -0.3214185E+00 -0.4701685E+00  0.7300131E+00  0.2963853E+00  0.2699869E+00  0.1096147E+00  0.0000000E+00
  0.8400000E+03 -0.3382699E+00 -0.4870199E+00  0.7240774E+00  0.2939754E+00  0.2759226E+00  0.1120246E+00  0.0000000E+00
  0.8520000E+03 -0.1707721E+00 -0.3195221E+00  0.7929941E+00  0.3219556E+00  0.2070059E+00  0.8404441E-01  0.0000000E+00
  0.8640000E+03  0.1821823E-02 -0.1469282E+00  0.8960325E+00  0.3637892E+00  0.1039675E+00  0.4221079E-01  0.0000000E+00
  0.8760000E+03 -0.2564934E-01 -0.1743993E+00  0.8768820E+00  0.3560141E+00  0.1231180E+00  0.4998589E-01  0.0000000E+00
  0.8880000E+03 -0.6132163E-01 -0.2100716E+00  0.8536339E+00  0.3465754E+00  0.1463661E+00  0.5942464E-01  0.0000000E+00
  0.9000000E+03 -0.9351359E-01 -0.2422636E+00  0.8342000E+00  0.3386852E+00  0.1658000E+00  0.6731480E-01  0.0000000E+00
  0.9120000E+03 -0.1223515E+00 -0.2711015E+00  0.8179673E+00  0.3320947E+00  0.1820327E+00  0.7390529E-01  0.0000000E+00
  0.9240000E+03 -0.1486542E+00 -0.2974042E+00  0.8040644E+00  0.3264501E+00  0.1959356E+00  0.7954987E-01  0.0000000E+00
  0.9360000E+03 -0.1730278E+00 -0.3217778E+00  0.7918954E+00  0.3215095E+00  0.2081046E+00  0.8449048E-01  0.0000000E+00
  0.9480000E+03 -0.1958795E+00 -0.3446295E+00  0.7810666E+00  0.3171131E+00  0.2189334E+00  0.8888694E-01  0.0000000E+00
  0.9600000E+03 -0.2174890E+00 -0.3662390E+00  0.7713085E+00  0.3131512E+00  0.2286915E+00  0.9284876E-01  0.0000000E+00
  0.9720000E+03 -0.2380570E+00 -0.3868070E+00  0.7624276E+00  0.3095456E+00  0.2375724E+00  0.9645438E-01  0.0000000E+00
  0.9840000E+03 -0.2577332E+00 -0.4064832E+00  0.7542804E+00  0.3062378E+00  0.2457196E+00  0.9976216E-01  0.0000000E+00
  0.9960000E+03 -0.2766335E+00 -0.4253835E+00  0.7467564E+00  0.3031831E+00  0.2532436E+00  0.1028169E+00  0.0000000E+00
  0.1008000E+04 -0.2948499E+00 -0.4435999E+00  0.7397687E+00  0.3003461E+00  0.2602313E+00  0.1056539E+00  0.0000000E+00
  0.1020000E+04 -0.1381476E+00 -0.2868976E+00  0.8095187E+00  0.3286646E+00  0.1904813E+00  0.7733541E-01  0.0000000E+00
  0.1032000E+04  0.1482364E-01 -0.1339264E+00  0.9054597E+00  0.3676166E+00  0.9454030E-01  0.3838336E-01  0.0000000E+00
  0.1044000E+04 -0.1642575E-01 -0.1651758E+00  0.8831922E+00  0.3585761E+00  0.1168078E+00  0.4742395E-01  0.0000000E+00
  0.1056000E+04 -0.5326973E-01 -0.2020197E+00  0.8587214E+00  0.3486409E+00  0.1412786E+00  0.5735911E-01  0.0000000E+00
  0.1068000E+04 -0.8612868E-01 -0.2348787E+00  0.8385325E+00  0.3404442E+00  0.1614675E+00  0.6555581E-01  0.0000000E+00
  0.1080000E+04 -0.1154839E+00 -0.2642339E+00  0.8217363E+00  0.3336249E+00  0.1782637E+00  0.7237505E-01  0.0000000E+00
  0.1092000E+04 -0.1422228E+00 -0.2909728E+00  0.8073877E+00  0.3277994E+00  0.1926123E+00  0.7820058E-01  0.0000000E+00
  0.1104000E+04 -0.1669701E+00 -0.3157201E+00  0.7948584E+00  0.3227125E+00  0.2051416E+00  0.8328751E-01  0.0000000E+00
  0.1116000E+04 -0.1901434E+00 -0.3388934E+00  0.7837342E+00  0.3181961E+00  0.2162658E+00  0.8780393E-01  0.0000000E+00
  0.1128000E+04 -0.2120309E+00 -0.3607809E+00  0.7737307E+00  0.3141347E+00  0.2262693E+00  0.9186533E-01  0.0000000E+00
  0.1140000E+04 -0.2328408E+00 -0.3815908E+00  0.7646437E+00  0.3104454E+00  0.2353563E+00  0.9555464E-01  0.0000000E+00
  0.1152000E+04 -0.2527292E+00 -0.4014792E+00  0.7563212E+00  0.3070664E+00  0.2436788E+00  0.9893358E-01  0.0000000E+00
  0.1164000E+04 -0.2718170E+00 -0.4205670E+00  0.7486466E+00  0.3039505E+00  0.2513534E+00  0.1020495E+00  0.0000000E+00
  0.1176000E+04 -0.2902005E+00 -0.4389505E+00  0.7415283E+00  0.3010605E+00  0.2584717E+00  0.1049395E+00  0.0000000E+00
  0.1188000E+04 -0.1346866E+00 -0.2834366E+00  0.8113439E+00  0.3294056E+00  0.1886561E+00  0.7659436E-01  0.0000000E+00
  0.1200000E+04  0.1620174E-01 -0.1325483E+00  0.9064718E+00  0.3680276E+00  0.9352818E-01  0.3797244E-01  0.0000000E+00
  0.1212000E+04 -0.1545549E-01 -0.1642055E+00  0.8838631E+00  0.3588484E+00  0.1161369E+00  0.4715156E-01  0.0000000E+00
  0.1224000E+04 -0.5242961E-01 -0.2011796E+00  0.8592576E+00  0.3488586E+00  0.1407424E+00  0.5714142E-01  0.0000000E+00
  0.1236000E+04 -0.8536367E-01 -0.2341137E+00  0.8389855E+00  0.3406281E+00  0.1610145E+00  0.6537189E-01  0.0000000E+00
  0.1248000E+04 -0.1147763E+00 -0.2635263E+00  0.8221281E+00  0.3337840E+00  0.1778719E+00  0.7221601E-01  0.0000000E+00
  0.1260000E+04 -0.1415626E+00 -0.2903126E+00  0.8077316E+00  0.3279390E+00  0.1922684E+00  0.7806096E-01  0.0000000E+00
  0.1272000E+04 -0.1663499E+00 -0.3150999E+00  0.7951640E+00  0.3228366E+00  0.2048360E+00  0.8316343E-01  0.0000000E+00
  0.1284000E+04 -0.1895571E+00 -0.3383071E+00  0.7840087E+00  0.3183075E+00  0.2159913E+00  0.8769248E-01  0.0000000E+00
  0.1296000E+04 -0.2114738E+00 -0.3602238E+00  0.7739795E+00  0.3142357E+00  0.2260205E+00  0.9176431E-01  0.0000000E+00
  0.1308000E+04 -0.2323089E+00 -0.3810589E+00  0.7648711E+00  0.3105377E+00  0.2351289E+00  0.9546234E-01  0.0000000E+00
  0.1320000E+04 -0.2522192E+00 -0.4009692E+00  0.7565304E+00  0.3071513E+00  0.2434696E+00  0.9884866E-01  0.0000000E+00
  0.1332000E+04 -0.2713265E+00 -0.4200765E+00  0.7488402E+00  0.3040291E+00  0.2511598E+00  0.1019709E+00  0.0000000E+00
  0.1344000E+04 -0.2897272E+00 -0.4384772E+00  0.7417084E+00  0.3011336E+00  0.2582916E+00  0.1048664E+00  0.0000000E+00
  0.1356000E+04 -0.1343347E+00 -0.2830847E+00  0.8115303E+00  0.3294813E+00  0.1884697E+00  0.7651868E-01  0.0000000E+00
  0.1368000E+04  0.1634185E-01 -0.1324082E+00  0.9065749E+00  0.3680694E+00  0.9342514E-01  0.3793061E-01  0.0000000E+00
  0.1380000E+04 -0.1535693E-01 -0.1641069E+00  0.8839314E+00  0.3588761E+00  0.1160686E+00  0.4712386E-01  0.0000000E+00
  0.1392000E+04 -0.5234434E-01 -0.2010943E+00  0.8593121E+00  0.3488807E+00  0.1406879E+00  0.5711931E-01  0.0000000E+00
  0.1404000E+04 -0.8528608E-01 -0.2340361E+00  0.8390315E+00  0.3406468E+00  0.1609685E+00  0.6535321E-01  0.0000000E+00
  0.1416000E+04 -0.1147046E+00 -0.2634546E+00  0.8221678E+00  0.3338001E+00  0.1778322E+00  0.7219988E-01  0.0000000E+00
  0.1428000E+04 -0.1414957E+00 -0.2902457E+00  0.8077665E+00  0.3279532E+00  0.1922335E+00  0.7804681E-01  0.0000000E+00
  0.1440000E+04 -0.1662871E+00 -0.3150371E+00  0.7951950E+00  0.3228492E+00  0.2048050E+00  0.8315085E-01  0.0000000E+00
  0.1452000E+04 -0.1894978E+00 -0.3382478E+00  0.7840365E+00  0.3183188E+00  0.2159635E+00  0.8768118E-01  0.0000000E+00
  0.1464000E+04 -0.2114174E+00 -0.3601674E+00  0.7740047E+00  0.3142459E+00  0.2259953E+00  0.9175407E-01  0.0000000E+00
  0.1476000E+04 -0.2322550E+00 -0.3810050E+00  0.7648941E+00  0.3105470E+00  0.2351059E+00  0.9545299E-01  0.0000000E+00
  0.1488000E+04 -0.2521676E+00 -0.4009176E+00  0.7565516E+00  0.3071599E+00  0.2434484E+00  0.9884006E-01  0.0000000E+00
  0.1500000E+04 -0.2712768E+00 -0.4200268E+00  0.7488598E+00  0.3040371E+00  0.2511402E+00  0.1019629E+00  0.0000000E+00
  0.1512000E+04 -0.2896793E+00 -0.4384293E+00  0.7417266E+00  0.3011410E+00  0.2582734E+00  0.1048590E+00  0.0000000E+00
  0.1524000E+04 -0.1342991E+00 -0.2830491E+00  0.8115492E+00  0.3294890E+00  0.1884508E+00  0.7651101E-01  0.0000000E+00
  0.1536000E+04  0.1635603E-01 -0.1323940E+00  0.9065853E+00  0.3680736E+00  0.9341471E-01  0.3792637E-01  0.0000000E+00
  0.1548000E+04 -0.1534695E-01 -0.1640970E+00  0.8839383E+00  0.3588789E+00  0.1160617E+00  0.4712106E-01  0.0000000E+00
  0.1560000E+04 -0.5233571E-01 -0.2010857E+00  0.8593176E+00  0.3488829E+00  0.1406824E+00  0.5711707E-01  0.0000000E+00
  0.1572000E+04 -0.8527823E-01 -0.2340282E+00  0.8390361E+00  0.3406487E+00  0.1609639E+00  0.6535132E-01  0.0000000E+00
  0.1584000E+04 -0.1146973E+00 -0.2634473E+00  0.8221718E+00  0.3338018E+00  0.1778282E+00  0.7219824E-01  0.0000000E+00
  0.1596000E+04 -0.1414890E+00 -0.2902390E+00  0.8077700E+00  0.3279546E+00  0.1922300E+00  0.7804537E-01  0.0000000E+00
  0.1608000E+04 -0.1662807E+00 -0.3150307E+00  0.7951981E+00  0.3228504E+00  0.2048019E+00  0.8314958E-01  0.0000000E+00
  0.1620000E+04 -0.1894918E+00 -0.3382418E+00  0.7840393E+00  0.3183200E+00  0.2159607E+00  0.8768004E-01  0.0000000E+00
  0.1632000E+04 -0.2114117E+00 -0.3601617E+00  0.7740073E+00  0.3142470E+00  0.2259927E+00  0.9175304E-01  0.0000000E+00
  0.1644000E+04 -0.2322495E+00 -0.3809995E+00  0.7648965E+00  0.3105480E+00  0.2351035E+00  0.9545204E-01  0.0000000E+00