title = "dataset falk221"
variables = "time", "h_w", "p_w", "s_w", "theta_a", "s_a", "theta_g", "q_root"
zone t = "Flow variables, volume =     1, delx =  1.00E+00, dely =  1.00E+00, delz =  6.25E-04", f=point
  0.1000000E-05 -0.3160000E+01 -0.3160000E+01  0.4350292E+00  0.1766218E+00  0.5649708E+00  0.2293782E+00  0.0000000E+00
  0.2000000E-05 -0.3180000E+01 -0.3180000E+01  0.4342411E+00  0.1763019E+00  0.5657589E+00  0.2296981E+00  0.0000000E+00
  0.3558387E-05 -0.3180000E+01 -0.3180000E+01  0.4342411E+00  0.1763019E+00  0.5657589E+00  0.2296981E+00  0.0000000E+00
  0.6181544E-05 -0.3180000E+01 -0.3180000E+01  0.4342411E+00  0.1763019E+00  0.5657589E+00  0.2296981E+00  0.0000000E+00
  0.1026944E-04 -0.3180000E+01 -0.3180000E+01  0.4342411E+00  0.1763019E+00  0.5657589E+00  0.2296981E+00  0.0000000E+00
  0.1663996E-04 -0.3180000E+01 -0.3180000E+01  0.4342411E+00  0.1763019E+00  0.5657589E+00  0.2296981E+00  0.0000000E+00
  0.2656771E-04 -0.3180000E+01 -0.3180000E+01  0.4342411E+00  0.1763019E+00  0.5657589E+00  0.2296981E+00  0.0000000E+00
  0.4203898E-04 -0.3180000E+01 -0.3180000E+01  0.4342411E+00  0.1763019E+00  0.5657589E+00  0.2296981E+00  0.0000000E+00
  0.6614922E-04 -0.3180000E+01 -0.3180000E+01  0.4342411E+00  0.1763019E+00  0.5657589E+00  0.2296981E+00  0.0000000E+00
  0.1037223E-03 -0.3180000E+01 -0.3180000E+01  0.4342411E+00  0.1763019E+00  0.5657589E+00  0.2296981E+00  0.0000000E+00
  0.1622757E-03 -0.3180000E+01 -0.3180000E+01  0.4342411E+00  0.1763019E+00  0.5657589E+00  0.2296981E+00  0.0000000E+00
  0.2535247E-03 -0.3180000E+01 -0.3180000E+01  0.4342411E+00  0.1763019E+00  0.5657589E+00  0.2296981E+00  0.0000000E+00
  0.3865417E-03 -0.3180000E+01 -0.3180000E+01  0.4342411E+00  0.1763019E+00  0.5657589E+00  0.2296981E+00  0.0000000E+00
  0.5804457E-03 -0.3180000E+01 -0.3180000E+01  0.4342411E+00  0.1763019E+00  0.5657589E+00  0.2296981E+00  0.0000000E+00
  0.8631069E-03 -0.3180000E+01 -0.3180000E+01  0.4342411E+00  0.1763019E+00  0.5657589E+00  0.2296981E+00  0.0000000E+00
  0.1275153E-02 -0.3180000E+01 -0.3180000E+01  0.4342411E+00  0.1763019E+00  0.5657589E+00  0.2296981E+00  0.0000000E+00
  0.1875808E-02 -0.3180000E+01 -0.3180000E+01  0.4342411E+00  0.1763019E+00  0.5657589E+00  0.2296981E+00  0.0000000E+00
  0.2751406E-02 -0.3180000E+01 -0.3180000E+01  0.4342411E+00  0.1763019E+00  0.5657589E+00  0.2296981E+00  0.0000000E+00
  0.3954800E-02 -0.3180000E+01 -0.3180000E+01  0.4342411E+00  0.1763019E+00  0.5657589E+00  0.2296981E+00  0.0000000E+00
  0.5608706E-02 -0.3180000E+01 -0.3180000E+01  0.4342411E+00  0.1763019E+00  0.5657589E+00  0.2296981E+00  0.0000000E+00
  0.7881784E-02 -0.3180000E+01 -0.3180000E+01  0.4342411E+00  0.1763019E+00  0.5657589E+00  0.2296981E+00  0.0000000E+00
  0.1100583E-01 -0.3180000E+01 -0.3180000E+01  0.4342411E+00  0.1763019E+00  0.5657589E+00  0.2296981E+00  0.0000000E+00
  0.1507909E-01 -0.3180000E+01 -0.3180000E+01  0.4342411E+00  0.1763019E+00  0.5657589E+00  0.2296981E+00  0.0000000E+00
  0.2067724E-01 -0.3180000E+01 -0.3180000E+01  0.4342411E+00  0.1763019E+00  0.5657589E+00  0.2296981E+00  0.0000000E+00
  0.2797635E-01 -0.3180000E+01 -0.3180000E+01  0.4342411E+00  0.1763019E+00  0.5657589E+00  0.2296981E+00  0.0000000E+00
  0.3749322E-01 -0.3180000E+01 -0.3180000E+01  0.4342411E+00  0.1763019E+00  0.5657589E+00  0.2296981E+00  0.0000000E+00
  0.4990169E-01 -0.3180000E+01 -0.3180000E+01  0.4342411E+00  0.1763019E+00  0.5657589E+00  0.2296981E+00  0.0000000E+00
  0.6467073E-01 -0.3180000E+01 -0.3180000E+01  0.4342411E+00  0.1763019E+00  0.5657589E+00  0.2296981E+00  0.0000000E+00
  0.8224941E-01 -0.3180000E+01 -0.3180000E+01  0.4342411E+00  0.1763019E+00  0.5657589E+00  0.2296981E+00  0.0000000E+00
  0.1031722E+00 -0.3180000E+01 -0.3180000E+01  0.4342411E+00  0.1763019E+00  0.5657589E+00  0.2296981E+00  0.0000000E+00
  0.1250718E+00 -0.3180000E+01 -0.3180000E+01  0.4342411E+00  0.1763019E+00  0.5657589E+00  0.2296981E+00  0.0000000E+00
  0.1500969E+00 -0.3180000E+01 -0.3180000E+01  0.4342411E+00  0.1763019E+00  0.5657589E+00  0.2296981E+00  0.0000000E+00
  0.1734499E+00 -0.3180000E+01 -0.3180000E+01  0.4342411E+00  0.1763019E+00  0.5657589E+00  0.2296981E+00  0.0000000E+00
  0.2012455E+00 -0.3180000E+01 -0.3180000E+01  0.4342411E+00  0.1763019E+00  0.5657589E+00  0.2296981E+00  0.0000000E+00
  0.2263631E+00 -0.3180000E+01 -0.3180000E+01  0.4342411E+00  0.1763019E+00  0.5657589E+00  0.2296981E+00  0.0000000E+00
  0.2562591E+00 -0.3180000E+01 -0.3180000E+01  0.4342411E+00  0.1763019E+00  0.5657589E+00  0.2296981E+00  0.0000000E+00
  0.2844061E+00 -0.3180000E+01 -0.3180000E+01  0.4342411E+00  0.1763019E+00  0.5657589E+00  0.2296981E+00  0.0000000E+00
  0.3179079E+00 -0.3180000E+01 -0.3180000E+01  0.4342411E+00  0.1763019E+00  0.5657589E+00  0.2296981E+00  0.0000000E+00
  0.3487913E+00 -0.3180000E+01 -0.3180000E+01  0.4342411E+00  0.1763019E+00  0.5657589E+00  0.2296981E+00  0.0000000E+00
  0.3855500E+00 -0.3180000E+01 -0.3180000E+01  0.4342411E+00  0.1763019E+00  0.5657589E+00  0.2296981E+00  0.0000000E+00
  0.4202048E+00 -0.3180000E+01 -0.3180000E+01  0.4342411E+00  0.1763019E+00  0.5657589E+00  0.2296981E+00  0.0000000E+00
  0.4614522E+00 -0.3180000E+01 -0.3180000E+01  0.4342411E+00  0.1763019E+00  0.5657589E+00  0.2296981E+00  0.0000000E+00
  0.4993969E+00 -0.3180000E+01 -0.3180000E+01  0.4342411E+00  0.1763019E+00  0.5657589E+00  0.2296981E+00  0.0000000E+00
  0.5445602E+00 -0.3180000E+01 -0.3180000E+01  0.4342411E+00  0.1763019E+00  0.5657589E+00  0.2296981E+00  0.0000000E+00
  0.5873792E+00 -0.3180000E+01 -0.3180000E+01  0.4342411E+00  0.1763019E+00  0.5657589E+00  0.2296981E+00  0.0000000E+00
  0.6383440E+00 -0.3180000E+01 -0.3180000E+01  0.4342411E+00  0.1763019E+00  0.5657589E+00  0.2296981E+00  0.0000000E+00
  0.6851412E+00 -0.3180000E+01 -0.3180000E+01  0.4342411E+00  0.1763019E+00  0.5657589E+00  0.2296981E+00  0.0000000E+00
  0.7408411E+00 -0.3180000E+01 -0.3180000E+01  0.4342411E+00  0.1763019E+00  0.5657589E+00  0.2296981E+00  0.0000000E+00
  0.7941860E+00 -0.3180000E+01 -0.3180000E+01  0.4342411E+00  0.1763019E+00  0.5657589E+00  0.2296981E+00  0.0000000E+00
  0.8576791E+00 -0.3180000E+01 -0.3180000E+01  0.4342411E+00  0.1763019E+00  0.5657589E+00  0.2296981E+00  0.0000000E+00
  0.9145187E+00 -0.3180000E+01 -0.3180000E+01  0.4342411E+00  0.1763019E+00  0.5657589E+00  0.2296981E+00  0.0000000E+00
  0.9821713E+00 -0.3180000E+01 -0.3180000E+01  0.4342411E+00  0.1763019E+00  0.5657589E+00  0.2296981E+00  0.0000000E+00
  0.1048797E+01 -0.3180000E+01 -0.3180000E+01  0.4342411E+00  0.1763019E+00  0.5657589E+00  0.2296981E+00  0.0000000E+00
  0.1128098E+01 -0.3180000E+01 -0.3180000E+01  0.4342411E+00  0.1763019E+00  0.5657589E+00  0.2296981E+00  0.0000000E+00
  0.1196707E+01 -0.3180000E+01 -0.3180000E+01  0.4342411E+00  0.1763019E+00  0.5657589E+00  0.2296981E+00  0.0000000E+00
  0.1282000E+01 -0.3180000E+01 -0.3180000E+01  0.4342411E+00  0.1763019E+00  0.5657589E+00  0.2296981E+00  0.0000000E+00
  0.1360931E+01 -0.3180000E+01 -0.3180000E+01  0.4342411E+00  0.1763019E+00  0.5657589E+00  0.2296981E+00  0.0000000E+00
  0.1454877E+01 -0.3180000E+01 -0.3180000E+01  0.4342411E+00  0.1763019E+00  0.5657589E+00  0.2296981E+00  0.0000000E+00
  0.1542945E+01 -0.3180000E+01 -0.3180000E+01  0.4342411E+00  0.1763019E+00  0.5657589E+00  0.2296981E+00  0.0000000E+00
  0.1647767E+01 -0.3180000E+01 -0.3180000E+01  0.4342411E+00  0.1763019E+00  0.5657589E+00  0.2296981E+00  0.0000000E+00
  0.1743941E+01 -0.3180000E+01 -0.3180000E+01  0.4342411E+00  0.1763019E+00  0.5657589E+00  0.2296981E+00  0.0000000E+00
  0.1858412E+01 -0.3180000E+01 -0.3180000E+01  0.4342411E+00  0.1763019E+00  0.5657589E+00  0.2296981E+00  0.0000000E+00
  0.1966664E+01 -0.3180000E+01 -0.3180000E+01  0.4342411E+00  0.1763019E+00  0.5657589E+00  0.2296981E+00  0.0000000E+00
  0.2095510E+01 -0.3180000E+01 -0.3180000E+01  0.4342411E+00  0.1763019E+00  0.5657589E+00  0.2296981E+00  0.0000000E+00
  0.2212727E+01 -0.3180000E+01 -0.3180000E+01  0.4342411E+00  0.1763019E+00  0.5657589E+00  0.2296981E+00  0.0000000E+00
  0.2352243E+01 -0.3180000E+01 -0.3180000E+01  0.4342411E+00  0.1763019E+00  0.5657589E+00  0.2296981E+00  0.0000000E+00
  0.2486033E+01 -0.3180000E+01 -0.3180000E+01  0.4342411E+00  0.1763019E+00  0.5657589E+00  0.2296981E+00  0.0000000E+00
  0.2645276E+01 -0.3180000E+01 -0.3180000E+01  0.4342411E+00  0.1763019E+00  0.5657589E+00  0.2296981E+00  0.0000000E+00
  0.2786879E+01 -0.3180000E+01 -0.3180000E+01  0.4342411E+00  0.1763019E+00  0.5657589E+00  0.2296981E+00  0.0000000E+00
  0.2962915E+01 -0.3180000E+01 -0.3180000E+01  0.4342411E+00  0.1763019E+00  0.5657589E+00  0.2296981E+00  0.0000000E+00
  0.3119265E+01 -0.3180000E+01 -0.3180000E+01  0.4342411E+00  0.1763019E+00  0.5657589E+00  0.2296981E+00  0.0000000E+00
  0.3313634E+01 -0.3180000E+01 -0.3180000E+01  0.4342411E+00  0.1763019E+00  0.5657589E+00  0.2296981E+00  0.0000000E+00
  0.3486309E+01 -0.3180000E+01 -0.3180000E+01  0.4342411E+00  0.1763019E+00  0.5657589E+00  0.2296981E+00  0.0000000E+00
  0.3700973E+01 -0.3180000E+01 -0.3180000E+01  0.4342411E+00  0.1763019E+00  0.5657589E+00  0.2296981E+00  0.0000000E+00
  0.3892106E+01 -0.3180000E+01 -0.3180000E+01  0.4342411E+00  0.1763019E+00  0.5657589E+00  0.2296981E+00  0.0000000E+00
  0.4129715E+01 -0.3180000E+01 -0.3180000E+01  0.4342411E+00  0.1763019E+00  0.5657589E+00  0.2296981E+00  0.0000000E+00
  0.4340986E+01 -0.3180000E+01 -0.3180000E+01  0.4342411E+00  0.1763019E+00  0.5657589E+00  0.2296981E+00  0.0000000E+00
  0.4603630E+01 -0.3180000E+01 -0.3180000E+01  0.4342411E+00  0.1763019E+00  0.5657589E+00  0.2296981E+00  0.0000000E+00
  0.4838353E+01 -0.3180000E+01 -0.3180000E+01  0.4342411E+00  0.1763019E+00  0.5657589E+00  0.2296981E+00  0.0000000E+00
  0.5130153E+01 -0.3180000E+01 -0.3180000E+01  0.4342411E+00  0.1763019E+00  0.5657589E+00  0.2296981E+00  0.0000000E+00
  0.5389104E+01 -0.3180000E+01 -0.3180000E+01  0.4342411E+00  0.1763019E+00  0.5657589E+00  0.2296981E+00  0.0000000E+00
  0.5711023E+01 -0.3180000E+01 -0.3180000E+01  0.4342411E+00  0.1763019E+00  0.5657589E+00  0.2296981E+00  0.0000000E+00
  0.6001074E+01 -0.3180000E+01 -0.3180000E+01  0.4342411E+00  0.1763019E+00  0.5657589E+00  0.2296981E+00  0.0000000E+00
  0.6361655E+01 -0.3180000E+01 -0.3180000E+01  0.4342411E+00  0.1763019E+00  0.5657589E+00  0.2296981E+00  0.0000000E+00
  0.6678745E+01 -0.3180000E+01 -0.3180000E+01  0.4342411E+00  0.1763019E+00  0.5657589E+00  0.2296981E+00  0.0000000E+00
  0.7092181E+01 -0.3180000E+01 -0.3180000E+01  0.4342411E+00  0.1763019E+00  0.5657589E+00  0.2296981E+00  0.0000000E+00
  0.7426029E+01 -0.3180000E+01 -0.3180000E+01  0.4342411E+00  0.1763019E+00  0.5657589E+00  0.2296981E+00  0.0000000E+00
  0.7912692E+01 -0.3180000E+01 -0.3180000E+01  0.4342411E+00  0.1763019E+00  0.5657589E+00  0.2296981E+00  0.0000000E+00
  0.8256939E+01 -0.3180000E+01 -0.3180000E+01  0.4342411E+00  0.1763019E+00  0.5657589E+00  0.2296981E+00  0.0000000E+00
  0.8793411E+01 -0.3180000E+01 -0.3180000E+01  0.4342411E+00  0.1763019E+00  0.5657589E+00  0.2296981E+00  0.0000000E+00
  0.9215810E+01 -0.3180000E+01 -0.3180000E+01  0.4342411E+00  0.1763019E+00  0.5657589E+00  0.2296981E+00  0.0000000E+00
  0.9831557E+01 -0.3180000E+01 -0.3180000E+01  0.4342411E+00  0.1763019E+00  0.5657589E+00  0.2296981E+00  0.0000000E+00
  0.1028309E+02 -0.3180000E+01 -0.3180000E+01  0.4342411E+00  0.1763019E+00  0.5657589E+00  0.2296981E+00  0.0000000E+00
  0.1098676E+02 -0.3180000E+01 -0.3180000E+01  0.4342411E+00  0.1763019E+00  0.5657589E+00  0.2296981E+00  0.0000000E+00
  0.1149640E+02 -0.3180000E+01 -0.3180000E+01  0.4342411E+00  0.1763019E+00  0.5657589E+00  0.2296981E+00  0.0000000E+00
  0.1229062E+02 -0.3180000E+01 -0.3180000E+01  0.4342411E+00  0.1763019E+00  0.5657589E+00  0.2296981E+00  0.0000000E+00
  0.1288354E+02 -0.3180000E+01 -0.3180000E+01  0.4342411E+00  0.1763019E+00  0.5657589E+00  0.2296981E+00  0.0000000E+00
  0.1380754E+02 -0.3180000E+01 -0.3180000E+01  0.4342411E+00  0.1763019E+00  0.5657589E+00  0.2296981E+00  0.0000000E+00
  0.1445315E+02 -0.3180000E+01 -0.3180000E+01  0.4342411E+00  0.1763019E+00  0.5657589E+00  0.2296981E+00  0.0000000E+00
  0.1545926E+02 -0.3180000E+01 -0.3180000E+01  0.4342411E+00  0.1763019E+00  0.5657589E+00  0.2296981E+00  0.0000000E+00
  0.1629646E+02 -0.3180000E+01 -0.3180000E+01  0.4342411E+00  0.1763019E+00  0.5657589E+00  0.2296981E+00  0.0000000E+00
  0.1744708E+02 -0.3180000E+01 -0.3180000E+01  0.4342411E+00  0.1763019E+00  0.5657589E+00  0.2296981E+00  0.0000000E+00
  0.1843659E+02 -0.3180000E+01 -0.3180000E+01  0.4342411E+00  0.1763019E+00  0.5657589E+00  0.2296981E+00  0.0000000E+00
  0.1979653E+02 -0.3180000E+01 -0.3180000E+01  0.4342411E+00  0.1763019E+00  0.5657589E+00  0.2296981E+00  0.0000000E+00
  0.2104404E+02 -0.3180000E+01 -0.3180000E+01  0.4342411E+00  0.1763019E+00  0.5657589E+00  0.2296981E+00  0.0000000E+00
  0.2259490E+02 -0.3180000E+01 -0.3180000E+01  0.4342411E+00  0.1763019E+00  0.5657589E+00  0.2296981E+00  0.0000000E+00
  0.2400000E+02 -0.3180000E+01 -0.3180000E+01  0.4342411E+00  0.1763019E+00  0.5657589E+00  0.2296981E+00  0.0000000E+00
  0.2593112E+02 -0.3180000E+01 -0.3180000E+01  0.4342411E+00  0.1763019E+00  0.5657589E+00  0.2296981E+00  0.0000000E+00
  0.2822961E+02 -0.3180000E+01 -0.3180000E+01  0.4342411E+00  0.1763019E+00  0.5657589E+00  0.2296981E+00  0.0000000E+00
  0.3096537E+02 -0.3180000E+01 -0.3180000E+01  0.4342411E+00  0.1763019E+00  0.5657589E+00  0.2296981E+00  0.0000000E+00
  0.3472530E+02 -0.3180000E+01 -0.3180000E+01  0.4342411E+00  0.1763019E+00  0.5657589E+00  0.2296981E+00  0.0000000E+00
  0.4058474E+02 -0.3180000E+01 -0.3180000E+01  0.4342411E+00  0.1763019E+00  0.5657589E+00  0.2296981E+00  0.0000000E+00
  0.4971600E+02 -0.3180000E+01 -0.3180000E+01  0.4342411E+00  0.1763019E+00  0.5657589E+00  0.2296981E+00  0.0000000E+00
  0.6171600E+02 -0.3180000E+01 -0.3180000E+01  0.4342411E+00  0.1763019E+00  0.5657589E+00  0.2296981E+00  0.0000000E+00
  0.7371600E+02 -0.3180000E+01 -0.3180000E+01  0.4342411E+00  0.1763019E+00  0.5657589E+00  0.2296981E+00  0.0000000E+00
  0.8571600E+02 -0.3180000E+01 -0.3180000E+01  0.4342411E+00  0.1763019E+00  0.5657589E+00  0.2296981E+00  0.0000000E+00
  0.9600000E+02 -0.3180000E+01 -0.3180000E+01  0.4342411E+00  0.1763019E+00  0.5657589E+00  0.2296981E+00  0.0000000E+00
  0.1080000E+03 -0.3180000E+01 -0.3180000E+01  0.4342411E+00  0.1763019E+00  0.5657589E+00  0.2296981E+00  0.0000000E+00
  0.1200000E+03 -0.3180000E+01 -0.3180000E+01  0.4342411E+00  0.1763019E+00  0.5657589E+00  0.2296981E+00  0.0000000E+00
  0.1320000E+03 -0.3180000E+01 -0.3180000E+01  0.4342411E+00  0.1763019E+00  0.5657589E+00  0.2296981E+00  0.0000000E+00
  0.1440000E+03 -0.3180000E+01 -0.3180000E+01  0.4342411E+00  0.1763019E+00  0.5657589E+00  0.2296981E+00  0.0000000E+00
  0.1560000E+03 -0.3180000E+01 -0.3180000E+01  0.4342411E+00  0.1763019E+00  0.5657589E+00  0.2296981E+00  0.0000000E+00
  0.1680000E+03 -0.3180000E+01 -0.3180000E+01  0.4342411E+00  0.1763019E+00  0.5657589E+00  0.2296981E+00  0.0000000E+00
  0.1800000E+03 -0.3180000E+01 -0.3180000E+01  0.4342411E+00  0.1763019E+00  0.5657589E+00  0.2296981E+00  0.0000000E+00
  0.1920000E+03 -0.3180000E+01 -0.3180000E+01  0.4342411E+00  0.1763019E+00  0.5657589E+00  0.2296981E+00  0.0000000E+00
  0.2040000E+03 -0.3180000E+01 -0.3180000E+01  0.4342411E+00  0.1763019E+00  0.5657589E+00  0.2296981E+00  0.0000000E+00
  0.2160000E+03 -0.3180000E+01 -0.3180000E+01  0.4342411E+00  0.1763019E+00  0.5657589E+00  0.2296981E+00  0.0000000E+00
  0.2280000E+03 -0.3180000E+01 -0.3180000E+01  0.4342411E+00  0.1763019E+00  0.5657589E+00  0.2296981E+00  0.0000000E+00
  0.2400000E+03 -0.3180000E+01 -0.3180000E+01  0.4342411E+00  0.1763019E+00  0.5657589E+00  0.2296981E+00  0.0000000E+00
  0.2520000E+03 -0.3180000E+01 -0.3180000E+01  0.4342411E+00  0.1763019E+00  0.5657589E+00  0.2296981E+00  0.0000000E+00
  0.2640000E+03 -0.3180000E+01 -0.3180000E+01  0.4342411E+00  0.1763019E+00  0.5657589E+00  0.2296981E+00  0.0000000E+00
  0.2760000E+03 -0.3180000E+01 -0.3180000E+01  0.4342411E+00  0.1763019E+00  0.5657589E+00  0.2296981E+00  0.0000000E+00
  0.2880000E+03 -0.3180000E+01 -0.3180000E+01  0.4342411E+00  0.1763019E+00  0.5657589E+00  0.2296981E+00  0.0000000E+00
  0.3000000E+03 -0.3180000E+01 -0.3180000E+01  0.4342411E+00  0.1763019E+00  0.5657589E+00  0.2296981E+00  0.0000000E+00
  0.3120000E+03 -0.3180000E+01 -0.3180000E+01  0.4342411E+00  0.1763019E+00  0.5657589E+00  0.2296981E+00  0.0000000E+00
  0.3240000E+03 -0.3180000E+01 -0.3180000E+01  0.4342411E+00  0.1763019E+00  0.5657589E+00  0.2296981E+00  0.0000000E+00
  0.3360000E+03 -0.3180000E+01 -0.3180000E+01  0.4342411E+00  0.1763019E+00  0.5657589E+00  0.2296981E+00  0.0000000E+00
  0.3480000E+03 -0.3180000E+01 -0.3180000E+01  0.4342411E+00  0.1763019E+00  0.5657589E+00  0.2296981E+00  0.0000000E+00
  0.3600000E+03 -0.3180000E+01 -0.3180000E+01  0.4342411E+00  0.1763019E+00  0.5657589E+00  0.2296981E+00  0.0000000E+00
  0.3720000E+03 -0.3180000E+01 -0.3180000E+01  0.4342411E+00  0.1763019E+00  0.5657589E+00  0.2296981E+00  0.0000000E+00
  0.3840000E+03 -0.3180000E+01 -0.3180000E+01  0.4342411E+00  0.1763019E+00  0.5657589E+00  0.2296981E+00  0.0000000E+00
  0.3960000E+03 -0.3180000E+01 -0.3180000E+01  0.4342411E+00  0.1763019E+00  0.5657589E+00  0.2296981E+00  0.0000000E+00
  0.4080000E+03 -0.3180000E+01 -0.3180000E+01  0.4342411E+00  0.1763019E+00  0.5657589E+00  0.2296981E+00  0.0000000E+00
  0.4200000E+03 -0.3180000E+01 -0.3180000E+01  0.4342411E+00  0.1763019E+00  0.5657589E+00  0.2296981E+00  0.0000000E+00
  0.4320000E+03 -0.3180000E+01 -0.3180000E+01  0.4342411E+00  0.1763019E+00  0.5657589E+00  0.2296981E+00  0.0000000E+00
  0.4440000E+03 -0.3180000E+01 -0.3180000E+01  0.4342411E+00  0.1763019E+00  0.5657589E+00  0.2296981E+00  0.0000000E+00
  0.4560000E+03 -0.3180000E+01 -0.3180000E+01  0.4342411E+00  0.1763019E+00  0.5657589E+00  0.2296981E+00  0.0000000E+00
  0.4680000E+03 -0.3180000E+01 -0.3180000E+01  0.4342411E+00  0.1763019E+00  0.5657589E+00  0.2296981E+00  0.0000000E+00
  0.4800000E+03 -0.3180000E+01 -0.3180000E+01  0.4342411E+00  0.1763019E+00  0.5657589E+00  0.2296981E+00  0.0000000E+00
  0.4920000E+03 -0.3180000E+01 -0.3180000E+01  0.4342411E+00  0.1763019E+00  0.5657589E+00  0.2296981E+00  0.0000000E+00
  0.5040000E+03 -0.3180000E+01 -0.3180000E+01  0.4342411E+00  0.1763019E+00  0.5657589E+00  0.2296981E+00  0.0000000E+00
  0.5160000E+03 -0.3180000E+01 -0.3180000E+01  0.4342411E+00  0.1763019E+00  0.5657589E+00  0.2296981E+00  0.0000000E+00
  0.5280000E+03 -0.3180000E+01 -0.3180000E+01  0.4342411E+00  0.1763019E+00  0.5657589E+00  0.2296981E+00  0.0000000E+00
  0.5400000E+03 -0.3180000E+01 -0.3180000E+01  0.4342411E+00  0.1763019E+00  0.5657589E+00  0.2296981E+00  0.0000000E+00
  0.5520000E+03 -0.3180000E+01 -0.3180000E+01  0.4342411E+00  0.1763019E+00  0.5657589E+00  0.2296981E+00  0.0000000E+00
  0.5640000E+03 -0.3180000E+01 -0.3180000E+01  0.4342411E+00  0.1763019E+00  0.5657589E+00  0.2296981E+00  0.0000000E+00
  0.5760000E+03 -0.3180000E+01 -0.3180000E+01  0.4342411E+00  0.1763019E+00  0.5657589E+00  0.2296981E+00  0.0000000E+00
  0.5880000E+03 -0.3180000E+01 -0.3180000E+01  0.4342411E+00  0.1763019E+00  0.5657589E+00  0.2296981E+00  0.0000000E+00
  0.6000000E+03 -0.3180000E+01 -0.3180000E+01  0.4342411E+00  0.1763019E+00  0.5657589E+00  0.2296981E+00  0.0000000E+00
  0.6120000E+03 -0.3180000E+01 -0.3180000E+01  0.4342411E+00  0.1763019E+00  0.5657589E+00  0.2296981E+00  0.0000000E+00
  0.6240000E+03 -0.3180000E+01 -0.3180000E+01  0.4342411E+00  0.1763019E+00  0.5657589E+00  0.2296981E+00  0.0000000E+00
  0.6360000E+03 -0.3180000E+01 -0.3180000E+01  0.4342411E+00  0.1763019E+00  0.5657589E+00  0.2296981E+00  0.0000000E+00
  0.6480000E+03 -0.3180000E+01 -0.3180000E+01  0.4342411E+00  0.1763019E+00  0.5657589E+00  0.2296981E+00  0.0000000E+00
  0.6600000E+03 -0.3180000E+01 -0.3180000E+01  0.4342411E+00  0.1763019E+00  0.5657589E+00  0.2296981E+00  0.0000000E+00
  0.6720000E+03 -0.3180000E+01 -0.3180000E+01  0.4342411E+00  0.1763019E+00  0.5657589E+00  0.2296981E+00  0.0000000E+00
  0.6840000E+03 -0.3180000E+01 -0.3180000E+01  0.4342411E+00  0.1763019E+00  0.5657589E+00  0.2296981E+00  0.0000000E+00
  0.6960000E+03 -0.3180000E+01 -0.3180000E+01  0.4342411E+00  0.1763019E+00  0.5657589E+00  0.2296981E+00  0.0000000E+00
  0.7080000E+03 -0.3180000E+01 -0.3180000E+01  0.4342411E+00  0.1763019E+00  0.5657589E+00  0.2296981E+00  0.0000000E+00
  0.7200000E+03 -0.3180000E+01 -0.3180000E+01  0.4342411E+00  0.1763019E+00  0.5657589E+00  0.2296981E+00  0.0000000E+00
  0.7320000E+03 -0.3180000E+01 -0.3180000E+01  0.4342411E+00  0.1763019E+00  0.5657589E+00  0.2296981E+00  0.0000000E+00
  0.7440000E+03 -0.3180000E+01 -0.3180000E+01  0.4342411E+00  0.1763019E+00  0.5657589E+00  0.2296981E+00  0.0000000E+00
  0.7560000E+03 -0.3180000E+01 -0.3180000E+01  0.4342411E+00  0.1763019E+00  0.5657589E+00  0.2296981E+00  0.0000000E+00
  0.7680000E+03 -0.3180000E+01 -0.3180000E+01  0.4342411E+00  0.1763019E+00  0.5657589E+00  0.2296981E+00  0.0000000E+00
  0.7800000E+03 -0.3180000E+01 -0.3180000E+01  0.4342411E+00  0.1763019E+00  0.5657589E+00  0.2296981E+00  0.0000000E+00
  0.7920000E+03 -0.3180000E+01 -0.3180000E+01  0.4342411E+00  0.1763019E+00  0.5657589E+00  0.2296981E+00  0.0000000E+00
  0.8040000E+03 -0.3180000E+01 -0.3180000E+01  0.4342411E+00  0.1763019E+00  0.5657589E+00  0.2296981E+00  0.0000000E+00
  0.8160000E+03 -0.3180000E+01 -0.3180000E+01  0.4342411E+00  0.1763019E+00  0.5657589E+00  0.2296981E+00  0.0000000E+00
  0.8280000E+03 -0.3180000E+01 -0.3180000E+01  0.4342411E+00  0.1763019E+00  0.5657589E+00  0.2296981E+00  0.0000000E+00
  0.8400000E+03 -0.3180000E+01 -0.3180000E+01  0.4342411E+00  0.1763019E+00  0.5657589E+00  0.2296981E+00  0.0000000E+00
  0.8520000E+03 -0.3180000E+01 -0.3180000E+01  0.4342411E+00  0.1763019E+00  0.5657589E+00  0.2296981E+00  0.0000000E+00
  0.8640000E+03 -0.3180000E+01 -0.3180000E+01  0.4342411E+00  0.1763019E+00  0.5657589E+00  0.2296981E+00  0.0000000E+00
  0.8760000E+03 -0.3180000E+01 -0.3180000E+01  0.4342411E+00  0.1763019E+00  0.5657589E+00  0.2296981E+00  0.0000000E+00
  0.8880000E+03 -0.3180000E+01 -0.3180000E+01  0.4342411E+00  0.1763019E+00  0.5657589E+00  0.2296981E+00  0.0000000E+00
  0.9000000E+03 -0.3180000E+01 -0.3180000E+01  0.4342411E+00  0.1763019E+00  0.5657589E+00  0.2296981E+00  0.0000000E+00
  0.9120000E+03 -0.3180000E+01 -0.3180000E+01  0.4342411E+00  0.1763019E+00  0.5657589E+00  0.2296981E+00  0.0000000E+00
  0.9240000E+03 -0.3180000E+01 -0.3180000E+01  0.4342411E+00  0.1763019E+00  0.5657589E+00  0.2296981E+00  0.0000000E+00
  0.9360000E+03 -0.3180000E+01 -0.3180000E+01  0.4342411E+00  0.1763019E+00  0.5657589E+00  0.2296981E+00  0.0000000E+00
  0.9480000E+03 -0.3180000E+01 -0.3180000E+01  0.4342411E+00  0.1763019E+00  0.5657589E+00  0.2296981E+00  0.0000000E+00
  0.9600000E+03 -0.3180000E+01 -0.3180000E+01  0.4342411E+00  0.1763019E+00  0.5657589E+00  0.2296981E+00  0.0000000E+00
  0.9720000E+03 -0.3180000E+01 -0.3180000E+01  0.4342411E+00  0.1763019E+00  0.5657589E+00  0.2296981E+00  0.0000000E+00
  0.9840000E+03 -0.3180000E+01 -0.3180000E+01  0.4342411E+00  0.1763019E+00  0.5657589E+00  0.2296981E+00  0.0000000E+00
  0.9960000E+03 -0.3180000E+01 -0.3180000E+01  0.4342411E+00  0.1763019E+00  0.5657589E+00  0.2296981E+00  0.0000000E+00
  0.1008000E+04 -0.3180000E+01 -0.3180000E+01  0.4342411E+00  0.1763019E+00  0.5657589E+00  0.2296981E+00  0.0000000E+00
  0.1020000E+04 -0.3180000E+01 -0.3180000E+01  0.4342411E+00  0.1763019E+00  0.5657589E+00  0.2296981E+00  0.0000000E+00
  0.1032000E+04 -0.3180000E+01 -0.3180000E+01  0.4342411E+00  0.1763019E+00  0.5657589E+00  0.2296981E+00  0.0000000E+00
  0.1044000E+04 -0.3180000E+01 -0.3180000E+01  0.4342411E+00  0.1763019E+00  0.5657589E+00  0.2296981E+00  0.0000000E+00
  0.1056000E+04 -0.3180000E+01 -0.3180000E+01  0.4342411E+00  0.1763019E+00  0.5657589E+00  0.2296981E+00  0.0000000E+00
  0.1068000E+04 -0.3180000E+01 -0.3180000E+01  0.4342411E+00  0.1763019E+00  0.5657589E+00  0.2296981E+00  0.0000000E+00
  0.1080000E+04 -0.3180000E+01 -0.3180000E+01  0.4342411E+00  0.1763019E+00  0.5657589E+00  0.2296981E+00  0.0000000E+00
  0.1092000E+04 -0.3180000E+01 -0.3180000E+01  0.4342411E+00  0.1763019E+00  0.5657589E+00  0.2296981E+00  0.0000000E+00
  0.1104000E+04 -0.3180000E+01 -0.3180000E+01  0.4342411E+00  0.1763019E+00  0.5657589E+00  0.2296981E+00  0.0000000E+00
  0.1116000E+04 -0.3180000E+01 -0.3180000E+01  0.4342411E+00  0.1763019E+00  0.5657589E+00  0.2296981E+00  0.0000000E+00
  0.1128000E+04 -0.3180000E+01 -0.3180000E+01  0.4342411E+00  0.1763019E+00  0.5657589E+00  0.2296981E+00  0.0000000E+00
  0.1140000E+04 -0.3180000E+01 -0.3180000E+01  0.4342411E+00  0.1763019E+00  0.5657589E+00  0.2296981E+00  0.0000000E+00
  0.1152000E+04 -0.3180000E+01 -0.3180000E+01  0.4342411E+00  0.1763019E+00  0.5657589E+00  0.2296981E+00  0.0000000E+00
  0.1164000E+04 -0.3180000E+01 -0.3180000E+01  0.4342411E+00  0.1763019E+00  0.5657589E+00  0.2296981E+00  0.0000000E+00
  0.1176000E+04 -0.3180000E+01 -0.3180000E+01  0.4342411E+00  0.1763019E+00  0.5657589E+00  0.2296981E+00  0.0000000E+00
  0.1188000E+04 -0.3180000E+01 -0.3180000E+01  0.4342411E+00  0.1763019E+00  0.5657589E+00  0.2296981E+00  0.0000000E+00
  0.1200000E+04 -0.3180000E+01 -0.3180000E+01  0.4342411E+00  0.1763019E+00  0.5657589E+00  0.2296981E+00  0.0000000E+00
  0.1212000E+04 -0.3180000E+01 -0.3180000E+01  0.4342411E+00  0.1763019E+00  0.5657589E+00  0.2296981E+00  0.0000000E+00
  0.1224000E+04 -0.3180000E+01 -0.3180000E+01  0.4342411E+00  0.1763019E+00  0.5657589E+00  0.2296981E+00  0.0000000E+00
  0.1236000E+04 -0.3180000E+01 -0.3180000E+01  0.4342411E+00  0.1763019E+00  0.5657589E+00  0.2296981E+00  0.0000000E+00
  0.1248000E+04 -0.3180000E+01 -0.3180000E+01  0.4342411E+00  0.1763019E+00  0.5657589E+00  0.2296981E+00  0.0000000E+00
  0.1260000E+04 -0.3180000E+01 -0.3180000E+01  0.4342411E+00  0.1763019E+00  0.5657589E+00  0.2296981E+00  0.0000000E+00
  0.1272000E+04 -0.3180000E+01 -0.3180000E+01  0.4342411E+00  0.1763019E+00  0.5657589E+00  0.2296981E+00  0.0000000E+00
  0.1284000E+04 -0.3180000E+01 -0.3180000E+01  0.4342411E+00  0.1763019E+00  0.5657589E+00  0.2296981E+00  0.0000000E+00
  0.1296000E+04 -0.3180000E+01 -0.3180000E+01  0.4342411E+00  0.1763019E+00  0.5657589E+00  0.2296981E+00  0.0000000E+00
  0.1308000E+04 -0.3180000E+01 -0.3180000E+01  0.4342411E+00  0.1763019E+00  0.5657589E+00  0.2296981E+00  0.0000000E+00
  0.1320000E+04 -0.3180000E+01 -0.3180000E+01  0.4342411E+00  0.1763019E+00  0.5657589E+00  0.2296981E+00  0.0000000E+00
  0.1332000E+04 -0.3180000E+01 -0.3180000E+01  0.4342411E+00  0.1763019E+00  0.5657589E+00  0.2296981E+00  0.0000000E+00
  0.1344000E+04 -0.3180000E+01 -0.3180000E+01  0.4342411E+00  0.1763019E+00  0.5657589E+00  0.2296981E+00  0.0000000E+00
  0.1356000E+04 -0.3180000E+01 -0.3180000E+01  0.4342411E+00  0.1763019E+00  0.5657589E+00  0.2296981E+00  0.0000000E+00
  0.1368000E+04 -0.3180000E+01 -0.3180000E+01  0.4342411E+00  0.1763019E+00  0.5657589E+00  0.2296981E+00  0.0000000E+00
  0.1380000E+04 -0.3180000E+01 -0.3180000E+01  0.4342411E+00  0.1763019E+00  0.5657589E+00  0.2296981E+00  0.0000000E+00
  0.1392000E+04 -0.3180000E+01 -0.3180000E+01  0.4342411E+00  0.1763019E+00  0.5657589E+00  0.2296981E+00  0.0000000E+00
  0.1404000E+04 -0.3180000E+01 -0.3180000E+01  0.4342411E+00  0.1763019E+00  0.5657589E+00  0.2296981E+00  0.0000000E+00
  0.1416000E+04 -0.3180000E+01 -0.3180000E+01  0.4342411E+00  0.1763019E+00  0.5657589E+00  0.2296981E+00  0.0000000E+00
  0.1428000E+04 -0.3180000E+01 -0.3180000E+01  0.4342411E+00  0.1763019E+00  0.5657589E+00  0.2296981E+00  0.0000000E+00
  0.1440000E+04 -0.3180000E+01 -0.3180000E+01  0.4342411E+00  0.1763019E+00  0.5657589E+00  0.2296981E+00  0.0000000E+00
  0.1452000E+04 -0.3180000E+01 -0.3180000E+01  0.4342411E+00  0.1763019E+00  0.5657589E+00  0.2296981E+00  0.0000000E+00
  0.1464000E+04 -0.3180000E+01 -0.3180000E+01  0.4342411E+00  0.1763019E+00  0.5657589E+00  0.2296981E+00  0.0000000E+00
  0.1476000E+04 -0.3180000E+01 -0.3180000E+01  0.4342411E+00  0.1763019E+00  0.5657589E+00  0.2296981E+00  0.0000000E+00
  0.1488000E+04 -0.3180000E+01 -0.3180000E+01  0.4342411E+00  0.1763019E+00  0.5657589E+00  0.2296981E+00  0.0000000E+00
  0.1500000E+04 -0.3180000E+01 -0.3180000E+01  0.4342411E+00  0.1763019E+00  0.5657589E+00  0.2296981E+00  0.0000000E+00
  0.1512000E+04 -0.3180000E+01 -0.3180000E+01  0.4342411E+00  0.1763019E+00  0.5657589E+00  0.2296981E+00  0.0000000E+00
  0.1524000E+04 -0.3180000E+01 -0.3180000E+01  0.4342411E+00  0.1763019E+00  0.5657589E+00  0.2296981E+00  0.0000000E+00
  0.1536000E+04 -0.3180000E+01 -0.3180000E+01  0.4342411E+00  0.1763019E+00  0.5657589E+00  0.2296981E+00  0.0000000E+00
  0.1548000E+04 -0.3180000E+01 -0.3180000E+01  0.4342411E+00  0.1763019E+00  0.5657589E+00  0.2296981E+00  0.0000000E+00
  0.1560000E+04 -0.3180000E+01 -0.3180000E+01  0.4342411E+00  0.1763019E+00  0.5657589E+00  0.2296981E+00  0.0000000E+00
  0.1572000E+04 -0.3180000E+01 -0.3180000E+01  0.4342411E+00  0.1763019E+00  0.5657589E+00  0.2296981E+00  0.0000000E+00
  0.1584000E+04 -0.3180000E+01 -0.3180000E+01  0.4342411E+00  0.1763019E+00  0.5657589E+00  0.2296981E+00  0.0000000E+00
  0.1596000E+04 -0.3180000E+01 -0.3180000E+01  0.4342411E+00  0.1763019E+00  0.5657589E+00  0.2296981E+00  0.0000000E+00
  0.1608000E+04 -0.3180000E+01 -0.3180000E+01  0.4342411E+00  0.1763019E+00  0.5657589E+00  0.2296981E+00  0.0000000E+00
  0.1620000E+04 -0.3180000E+01 -0.3180000E+01  0.4342411E+00  0.1763019E+00  0.5657589E+00  0.2296981E+00  0.0000000E+00
  0.1632000E+04 -0.3180000E+01 -0.3180000E+01  0.4342411E+00  0.1763019E+00  0.5657589E+00  0.2296981E+00  0.0000000E+00
  0.1644000E+04 -0.3180000E+01 -0.3180000E+01  0.4342411E+00  0.1763019E+00  0.5657589E+00  0.2296981E+00  0.0000000E+00