title = "dataset falk221"
variables = "time", "h_w", "p_w", "s_w", "theta_a", "s_a", "theta_g", "q_root"
zone t = "Flow variables, volume =    80, delx =  1.00E+00, dely =  1.00E+00, delz =  1.25E-03", f=point
  0.1000000E-05 -0.3448921E+00 -0.4436421E+00  0.7397528E+00  0.3003396E+00  0.2602472E+00  0.1056604E+00  0.0000000E+00
  0.2000000E-05 -0.3448921E+00 -0.4436421E+00  0.7397528E+00  0.3003396E+00  0.2602472E+00  0.1056604E+00  0.0000000E+00
  0.3558387E-05 -0.3448921E+00 -0.4436421E+00  0.7397528E+00  0.3003396E+00  0.2602472E+00  0.1056604E+00  0.0000000E+00
  0.6181544E-05 -0.3448921E+00 -0.4436421E+00  0.7397528E+00  0.3003396E+00  0.2602472E+00  0.1056604E+00  0.0000000E+00
  0.1026944E-04 -0.3448921E+00 -0.4436421E+00  0.7397528E+00  0.3003396E+00  0.2602472E+00  0.1056604E+00  0.0000000E+00
  0.1663996E-04 -0.3448921E+00 -0.4436421E+00  0.7397528E+00  0.3003396E+00  0.2602472E+00  0.1056604E+00  0.0000000E+00
  0.2656771E-04 -0.3448922E+00 -0.4436422E+00  0.7397528E+00  0.3003396E+00  0.2602472E+00  0.1056604E+00  0.0000000E+00
  0.4203898E-04 -0.3448922E+00 -0.4436422E+00  0.7397528E+00  0.3003396E+00  0.2602472E+00  0.1056604E+00  0.0000000E+00
  0.6614922E-04 -0.3448922E+00 -0.4436422E+00  0.7397528E+00  0.3003396E+00  0.2602472E+00  0.1056604E+00  0.0000000E+00
  0.1037223E-03 -0.3448923E+00 -0.4436423E+00  0.7397528E+00  0.3003396E+00  0.2602472E+00  0.1056604E+00  0.0000000E+00
  0.1622757E-03 -0.3448924E+00 -0.4436424E+00  0.7397527E+00  0.3003396E+00  0.2602473E+00  0.1056604E+00  0.0000000E+00
  0.2535247E-03 -0.3448926E+00 -0.4436426E+00  0.7397526E+00  0.3003396E+00  0.2602474E+00  0.1056604E+00  0.0000000E+00
  0.3865417E-03 -0.3448928E+00 -0.4436428E+00  0.7397526E+00  0.3003395E+00  0.2602474E+00  0.1056605E+00  0.0000000E+00
  0.5804457E-03 -0.3448932E+00 -0.4436432E+00  0.7397524E+00  0.3003395E+00  0.2602476E+00  0.1056605E+00  0.0000000E+00
  0.8631069E-03 -0.3448938E+00 -0.4436438E+00  0.7397522E+00  0.3003394E+00  0.2602478E+00  0.1056606E+00  0.0000000E+00
  0.1275153E-02 -0.3448945E+00 -0.4436445E+00  0.7397519E+00  0.3003393E+00  0.2602481E+00  0.1056607E+00  0.0000000E+00
  0.1875808E-02 -0.3448957E+00 -0.4436457E+00  0.7397515E+00  0.3003391E+00  0.2602485E+00  0.1056609E+00  0.0000000E+00
  0.2751406E-02 -0.3448974E+00 -0.4436474E+00  0.7397508E+00  0.3003388E+00  0.2602492E+00  0.1056612E+00  0.0000000E+00
  0.3954800E-02 -0.3448997E+00 -0.4436497E+00  0.7397500E+00  0.3003385E+00  0.2602500E+00  0.1056615E+00  0.0000000E+00
  0.5608706E-02 -0.3449028E+00 -0.4436528E+00  0.7397488E+00  0.3003380E+00  0.2602512E+00  0.1056620E+00  0.0000000E+00
  0.7881784E-02 -0.3449072E+00 -0.4436572E+00  0.7397472E+00  0.3003373E+00  0.2602528E+00  0.1056627E+00  0.0000000E+00
  0.1100583E-01 -0.3449132E+00 -0.4436632E+00  0.7397449E+00  0.3003364E+00  0.2602551E+00  0.1056636E+00  0.0000000E+00
  0.1507909E-01 -0.3449209E+00 -0.4436709E+00  0.7397420E+00  0.3003352E+00  0.2602580E+00  0.1056648E+00  0.0000000E+00
  0.2067724E-01 -0.3449316E+00 -0.4436816E+00  0.7397379E+00  0.3003336E+00  0.2602621E+00  0.1056664E+00  0.0000000E+00
  0.2797635E-01 -0.3449456E+00 -0.4436956E+00  0.7397327E+00  0.3003315E+00  0.2602673E+00  0.1056685E+00  0.0000000E+00
  0.3749322E-01 -0.3449637E+00 -0.4437137E+00  0.7397258E+00  0.3003287E+00  0.2602742E+00  0.1056713E+00  0.0000000E+00
  0.4990169E-01 -0.3449874E+00 -0.4437374E+00  0.7397169E+00  0.3003251E+00  0.2602831E+00  0.1056749E+00  0.0000000E+00
  0.6467073E-01 -0.3450156E+00 -0.4437656E+00  0.7397063E+00  0.3003208E+00  0.2602937E+00  0.1056792E+00  0.0000000E+00
  0.8224941E-01 -0.3450492E+00 -0.4437992E+00  0.7396937E+00  0.3003156E+00  0.2603063E+00  0.1056844E+00  0.0000000E+00
  0.1031722E+00 -0.3450891E+00 -0.4438391E+00  0.7396786E+00  0.3003095E+00  0.2603214E+00  0.1056905E+00  0.0000000E+00
  0.1250718E+00 -0.3451309E+00 -0.4438809E+00  0.7396629E+00  0.3003031E+00  0.2603371E+00  0.1056969E+00  0.0000000E+00
  0.1500969E+00 -0.3451787E+00 -0.4439287E+00  0.7396449E+00  0.3002958E+00  0.2603551E+00  0.1057042E+00  0.0000000E+00
  0.1734499E+00 -0.3452233E+00 -0.4439733E+00  0.7396281E+00  0.3002890E+00  0.2603719E+00  0.1057110E+00  0.0000000E+00
  0.2012455E+00 -0.3452763E+00 -0.4440263E+00  0.7396082E+00  0.3002809E+00  0.2603918E+00  0.1057191E+00  0.0000000E+00
  0.2263631E+00 -0.3453242E+00 -0.4440742E+00  0.7395901E+00  0.3002736E+00  0.2604099E+00  0.1057264E+00  0.0000000E+00
  0.2562591E+00 -0.3453813E+00 -0.4441313E+00  0.7395686E+00  0.3002649E+00  0.2604314E+00  0.1057351E+00  0.0000000E+00
  0.2844061E+00 -0.3454350E+00 -0.4441850E+00  0.7395484E+00  0.3002567E+00  0.2604516E+00  0.1057433E+00  0.0000000E+00
  0.3179079E+00 -0.3454989E+00 -0.4442489E+00  0.7395244E+00  0.3002469E+00  0.2604756E+00  0.1057531E+00  0.0000000E+00
  0.3487913E+00 -0.3455578E+00 -0.4443078E+00  0.7395022E+00  0.3002379E+00  0.2604978E+00  0.1057621E+00  0.0000000E+00
  0.3855500E+00 -0.3456279E+00 -0.4443779E+00  0.7394759E+00  0.3002272E+00  0.2605241E+00  0.1057728E+00  0.0000000E+00
  0.4202048E+00 -0.3456940E+00 -0.4444440E+00  0.7394510E+00  0.3002171E+00  0.2605490E+00  0.1057829E+00  0.0000000E+00
  0.4614522E+00 -0.3457726E+00 -0.4445226E+00  0.7394214E+00  0.3002051E+00  0.2605786E+00  0.1057949E+00  0.0000000E+00
  0.4993969E+00 -0.3458450E+00 -0.4445950E+00  0.7393942E+00  0.3001941E+00  0.2606058E+00  0.1058059E+00  0.0000000E+00
  0.5445602E+00 -0.3459310E+00 -0.4446810E+00  0.7393619E+00  0.3001809E+00  0.2606381E+00  0.1058191E+00  0.0000000E+00
  0.5873792E+00 -0.3460126E+00 -0.4447626E+00  0.7393312E+00  0.3001685E+00  0.2606688E+00  0.1058315E+00  0.0000000E+00
  0.6383440E+00 -0.3461098E+00 -0.4448598E+00  0.7392947E+00  0.3001536E+00  0.2607053E+00  0.1058464E+00  0.0000000E+00
  0.6851412E+00 -0.3461989E+00 -0.4449489E+00  0.7392612E+00  0.3001400E+00  0.2607388E+00  0.1058600E+00  0.0000000E+00
  0.7408411E+00 -0.3463050E+00 -0.4450550E+00  0.7392213E+00  0.3001239E+00  0.2607787E+00  0.1058761E+00  0.0000000E+00
  0.7941860E+00 -0.3464066E+00 -0.4451566E+00  0.7391832E+00  0.3001084E+00  0.2608168E+00  0.1058916E+00  0.0000000E+00
  0.8576791E+00 -0.3465275E+00 -0.4452775E+00  0.7391378E+00  0.3000899E+00  0.2608622E+00  0.1059101E+00  0.0000000E+00
  0.9145187E+00 -0.3466357E+00 -0.4453857E+00  0.7390971E+00  0.3000734E+00  0.2609029E+00  0.1059266E+00  0.0000000E+00
  0.9821713E+00 -0.3467644E+00 -0.4455144E+00  0.7390488E+00  0.3000538E+00  0.2609512E+00  0.1059462E+00  0.0000000E+00
  0.1048797E+01 -0.3468912E+00 -0.4456412E+00  0.7390012E+00  0.3000345E+00  0.2609988E+00  0.1059655E+00  0.0000000E+00
  0.1128098E+01 -0.3470421E+00 -0.4457921E+00  0.7389446E+00  0.3000115E+00  0.2610554E+00  0.1059885E+00  0.0000000E+00
  0.1196707E+01 -0.3471725E+00 -0.4459225E+00  0.7388957E+00  0.2999916E+00  0.2611043E+00  0.1060084E+00  0.0000000E+00
  0.1282000E+01 -0.3473347E+00 -0.4460847E+00  0.7388349E+00  0.2999670E+00  0.2611651E+00  0.1060330E+00  0.0000000E+00
  0.1360931E+01 -0.3474847E+00 -0.4462347E+00  0.7387786E+00  0.2999441E+00  0.2612214E+00  0.1060559E+00  0.0000000E+00
  0.1454877E+01 -0.3476632E+00 -0.4464132E+00  0.7387118E+00  0.2999170E+00  0.2612882E+00  0.1060830E+00  0.0000000E+00
  0.1542945E+01 -0.3478305E+00 -0.4465805E+00  0.7386491E+00  0.2998915E+00  0.2613509E+00  0.1061085E+00  0.0000000E+00
  0.1647767E+01 -0.3480296E+00 -0.4467796E+00  0.7385746E+00  0.2998613E+00  0.2614254E+00  0.1061387E+00  0.0000000E+00
  0.1743941E+01 -0.3482121E+00 -0.4469621E+00  0.7385062E+00  0.2998335E+00  0.2614938E+00  0.1061665E+00  0.0000000E+00
  0.1858412E+01 -0.3484293E+00 -0.4471793E+00  0.7384249E+00  0.2998005E+00  0.2615751E+00  0.1061995E+00  0.0000000E+00
  0.1966664E+01 -0.3486346E+00 -0.4473846E+00  0.7383481E+00  0.2997693E+00  0.2616519E+00  0.1062307E+00  0.0000000E+00
  0.2095510E+01 -0.3488789E+00 -0.4476289E+00  0.7382568E+00  0.2997323E+00  0.2617432E+00  0.1062677E+00  0.0000000E+00
  0.2212727E+01 -0.3491011E+00 -0.4478511E+00  0.7381738E+00  0.2996986E+00  0.2618262E+00  0.1063014E+00  0.0000000E+00
  0.2352243E+01 -0.3493653E+00 -0.4481153E+00  0.7380751E+00  0.2996585E+00  0.2619249E+00  0.1063415E+00  0.0000000E+00
  0.2486033E+01 -0.3496186E+00 -0.4483686E+00  0.7379805E+00  0.2996201E+00  0.2620195E+00  0.1063799E+00  0.0000000E+00
  0.2645276E+01 -0.3499200E+00 -0.4486700E+00  0.7378681E+00  0.2995744E+00  0.2621319E+00  0.1064256E+00  0.0000000E+00
  0.2786879E+01 -0.3501878E+00 -0.4489378E+00  0.7377682E+00  0.2995339E+00  0.2622318E+00  0.1064661E+00  0.0000000E+00
  0.2962915E+01 -0.3505205E+00 -0.4492705E+00  0.7376442E+00  0.2994835E+00  0.2623558E+00  0.1065165E+00  0.0000000E+00
  0.3119265E+01 -0.3508158E+00 -0.4495658E+00  0.7375342E+00  0.2994389E+00  0.2624658E+00  0.1065611E+00  0.0000000E+00
  0.3313634E+01 -0.3511826E+00 -0.4499326E+00  0.7373977E+00  0.2993835E+00  0.2626023E+00  0.1066165E+00  0.0000000E+00
  0.3486309E+01 -0.3515082E+00 -0.4502582E+00  0.7372766E+00  0.2993343E+00  0.2627234E+00  0.1066657E+00  0.0000000E+00
  0.3700973E+01 -0.3519123E+00 -0.4506623E+00  0.7371263E+00  0.2992733E+00  0.2628737E+00  0.1067267E+00  0.0000000E+00
  0.3892106E+01 -0.3522716E+00 -0.4510216E+00  0.7369929E+00  0.2992191E+00  0.2630071E+00  0.1067809E+00  0.0000000E+00
  0.4129715E+01 -0.3527171E+00 -0.4514671E+00  0.7368275E+00  0.2991520E+00  0.2631725E+00  0.1068480E+00  0.0000000E+00
  0.4340986E+01 -0.3531120E+00 -0.4518620E+00  0.7366811E+00  0.2990925E+00  0.2633189E+00  0.1069075E+00  0.0000000E+00
  0.4603630E+01 -0.3536001E+00 -0.4523501E+00  0.7365002E+00  0.2990191E+00  0.2634998E+00  0.1069809E+00  0.0000000E+00
  0.4838353E+01 -0.3540335E+00 -0.4527835E+00  0.7363398E+00  0.2989539E+00  0.2636602E+00  0.1070461E+00  0.0000000E+00
  0.5130153E+01 -0.3545658E+00 -0.4533158E+00  0.7361429E+00  0.2988740E+00  0.2638571E+00  0.1071260E+00  0.0000000E+00
  0.5389104E+01 -0.3550314E+00 -0.4537814E+00  0.7359708E+00  0.2988042E+00  0.2640292E+00  0.1071958E+00  0.0000000E+00
  0.5711023E+01 -0.3555956E+00 -0.4543456E+00  0.7357626E+00  0.2987196E+00  0.2642374E+00  0.1072804E+00  0.0000000E+00
  0.6001074E+01 -0.3560881E+00 -0.4548381E+00  0.7355810E+00  0.2986459E+00  0.2644190E+00  0.1073541E+00  0.0000000E+00
  0.6361655E+01 -0.3566667E+00 -0.4554167E+00  0.7353678E+00  0.2985593E+00  0.2646322E+00  0.1074407E+00  0.0000000E+00
  0.6678745E+01 -0.3571420E+00 -0.4558920E+00  0.7351929E+00  0.2984883E+00  0.2648071E+00  0.1075117E+00  0.0000000E+00
  0.7092181E+01 -0.3576835E+00 -0.4564335E+00  0.7349938E+00  0.2984075E+00  0.2650062E+00  0.1075925E+00  0.0000000E+00
  0.7426029E+01 -0.3580572E+00 -0.4568072E+00  0.7348566E+00  0.2983518E+00  0.2651434E+00  0.1076482E+00  0.0000000E+00
  0.7912692E+01 -0.3584184E+00 -0.4571684E+00  0.7347240E+00  0.2982979E+00  0.2652760E+00  0.1077021E+00  0.0000000E+00
  0.8256939E+01 -0.3585626E+00 -0.4573126E+00  0.7346711E+00  0.2982765E+00  0.2653289E+00  0.1077235E+00  0.0000000E+00
  0.8793411E+01 -0.3584306E+00 -0.4571806E+00  0.7347195E+00  0.2982961E+00  0.2652805E+00  0.1077039E+00  0.0000000E+00
  0.9215810E+01 -0.3580573E+00 -0.4568073E+00  0.7348565E+00  0.2983518E+00  0.2651435E+00  0.1076482E+00  0.0000000E+00
  0.9831557E+01 -0.3567764E+00 -0.4555264E+00  0.7353275E+00  0.2985430E+00  0.2646725E+00  0.1074570E+00  0.0000000E+00
  0.1028309E+02 -0.3553672E+00 -0.4541172E+00  0.7358469E+00  0.2987538E+00  0.2641531E+00  0.1072462E+00  0.0000000E+00
  0.1098676E+02 -0.3517553E+00 -0.4505053E+00  0.7371847E+00  0.2992970E+00  0.2628153E+00  0.1067030E+00  0.0000000E+00
  0.1149640E+02 -0.3482844E+00 -0.4470344E+00  0.7384792E+00  0.2998225E+00  0.2615208E+00  0.1061775E+00  0.0000000E+00
  0.1229062E+02 -0.3404529E+00 -0.4392029E+00  0.7414324E+00  0.3010216E+00  0.2585676E+00  0.1049784E+00  0.0000000E+00
  0.1288354E+02 -0.3331393E+00 -0.4318893E+00  0.7442318E+00  0.3021581E+00  0.2557682E+00  0.1038419E+00  0.0000000E+00
  0.1380754E+02 -0.3180030E+00 -0.4167530E+00  0.7501565E+00  0.3045635E+00  0.2498435E+00  0.1014365E+00  0.0000000E+00
  0.1445315E+02 -0.3056863E+00 -0.4044363E+00  0.7551127E+00  0.3065757E+00  0.2448873E+00  0.9942426E-01  0.0000000E+00
  0.1545926E+02 -0.2827415E+00 -0.3814915E+00  0.7646861E+00  0.3104626E+00  0.2353139E+00  0.9553743E-01  0.0000000E+00
  0.1629646E+02 -0.2618244E+00 -0.3605744E+00  0.7738229E+00  0.3141721E+00  0.2261771E+00  0.9182790E-01  0.0000000E+00
  0.1744708E+02 -0.2311776E+00 -0.3299276E+00  0.7879711E+00  0.3199162E+00  0.2120289E+00  0.8608375E-01  0.0000000E+00
  0.1843659E+02 -0.2049080E+00 -0.3036580E+00  0.8008785E+00  0.3251567E+00  0.1991215E+00  0.8084331E-01  0.0000000E+00
  0.1979653E+02 -0.1706049E+00 -0.2693549E+00  0.8189202E+00  0.3324816E+00  0.1810798E+00  0.7351838E-01  0.0000000E+00
  0.2104404E+02 -0.1421212E+00 -0.2408712E+00  0.8350113E+00  0.3390146E+00  0.1649887E+00  0.6698542E-01  0.0000000E+00
  0.2259490E+02 -0.1115460E+00 -0.2102960E+00  0.8534935E+00  0.3465183E+00  0.1465065E+00  0.5948166E-01  0.0000000E+00
  0.2400000E+02 -0.8800528E-01 -0.1867553E+00  0.8686215E+00  0.3526603E+00  0.1313785E+00  0.5333965E-01  0.0000000E+00
  0.2593112E+02 -0.7101245E-01 -0.1697625E+00  0.8800390E+00  0.3572958E+00  0.1199610E+00  0.4870417E-01  0.0000000E+00
  0.2822961E+02 -0.6593508E-01 -0.1646851E+00  0.8835314E+00  0.3587137E+00  0.1164686E+00  0.4728627E-01  0.0000000E+00
  0.3096537E+02 -0.6904490E-01 -0.1677949E+00  0.8813879E+00  0.3578435E+00  0.1186121E+00  0.4815649E-01  0.0000000E+00
  0.3472530E+02 -0.7875821E-01 -0.1775082E+00  0.8747828E+00  0.3551618E+00  0.1252172E+00  0.5083818E-01  0.0000000E+00
  0.4058474E+02 -0.9652296E-01 -0.1952730E+00  0.8630558E+00  0.3504006E+00  0.1369442E+00  0.5559935E-01  0.0000000E+00
  0.4971600E+02 -0.1238456E+00 -0.2225956E+00  0.8459030E+00  0.3434366E+00  0.1540970E+00  0.6256340E-01  0.0000000E+00
  0.6171600E+02 -0.1573092E+00 -0.2560592E+00  0.8263007E+00  0.3354781E+00  0.1736993E+00  0.7052194E-01  0.0000000E+00
  0.7371600E+02 -0.1885907E+00 -0.2873407E+00  0.8092860E+00  0.3285701E+00  0.1907140E+00  0.7742987E-01  0.0000000E+00
  0.8571600E+02 -0.2179062E+00 -0.3166562E+00  0.7943979E+00  0.3225255E+00  0.2056021E+00  0.8347446E-01  0.0000000E+00
  0.9600000E+02 -0.2418525E+00 -0.3406025E+00  0.7829359E+00  0.3178720E+00  0.2170641E+00  0.8812803E-01  0.0000000E+00
  0.1080000E+03 -0.2681515E+00 -0.3669015E+00  0.7710164E+00  0.3130327E+00  0.2289836E+00  0.9296734E-01  0.0000000E+00
  0.1200000E+03 -0.2931285E+00 -0.3918785E+00  0.7602959E+00  0.3086802E+00  0.2397041E+00  0.9731985E-01  0.0000000E+00
  0.1320000E+03 -0.3169521E+00 -0.4157021E+00  0.7505746E+00  0.3047333E+00  0.2494254E+00  0.1012667E+00  0.0000000E+00
  0.1440000E+03 -0.3397620E+00 -0.4385120E+00  0.7416952E+00  0.3011282E+00  0.2583048E+00  0.1048718E+00  0.0000000E+00
  0.1560000E+03 -0.3616747E+00 -0.4604247E+00  0.7335330E+00  0.2978144E+00  0.2664670E+00  0.1081856E+00  0.0000000E+00
  0.1680000E+03 -0.3827873E+00 -0.4815373E+00  0.7259879E+00  0.2947511E+00  0.2740121E+00  0.1112489E+00  0.0000000E+00
  0.1800000E+03 -0.3172728E+00 -0.4160228E+00  0.7504469E+00  0.3046814E+00  0.2495531E+00  0.1013186E+00  0.0000000E+00
  0.1920000E+03 -0.1365210E+00 -0.2352710E+00  0.8383005E+00  0.3403500E+00  0.1616995E+00  0.6565000E-01  0.0000000E+00
  0.2040000E+03 -0.1198750E+00 -0.2186250E+00  0.8483302E+00  0.3444221E+00  0.1516698E+00  0.6157795E-01  0.0000000E+00
  0.2160000E+03 -0.1397234E+00 -0.2384734E+00  0.8364144E+00  0.3395843E+00  0.1635856E+00  0.6641574E-01  0.0000000E+00
  0.2280000E+03 -0.1668030E+00 -0.2655530E+00  0.8210078E+00  0.3333292E+00  0.1789922E+00  0.7267083E-01  0.0000000E+00
  0.2400000E+03 -0.1948942E+00 -0.2936442E+00  0.8060015E+00  0.3272366E+00  0.1939985E+00  0.7876341E-01  0.0000000E+00
  0.2520000E+03 -0.2224044E+00 -0.3211544E+00  0.7921984E+00  0.3216326E+00  0.2078016E+00  0.8436744E-01  0.0000000E+00
  0.2640000E+03 -0.2488978E+00 -0.3476478E+00  0.7796763E+00  0.3165486E+00  0.2203237E+00  0.8945143E-01  0.0000000E+00
  0.2760000E+03 -0.2742913E+00 -0.3730413E+00  0.7683287E+00  0.3119415E+00  0.2316713E+00  0.9405853E-01  0.0000000E+00
  0.2880000E+03 -0.2986216E+00 -0.3973716E+00  0.7580122E+00  0.3077529E+00  0.2419878E+00  0.9824707E-01  0.0000000E+00
  0.3000000E+03 -0.3219649E+00 -0.4207149E+00  0.7485883E+00  0.3039269E+00  0.2514117E+00  0.1020731E+00  0.0000000E+00
  0.3120000E+03 -0.3444058E+00 -0.4431558E+00  0.7399361E+00  0.3004141E+00  0.2600639E+00  0.1055859E+00  0.0000000E+00
  0.3240000E+03 -0.3660267E+00 -0.4647767E+00  0.7319527E+00  0.2971728E+00  0.2680473E+00  0.1088272E+00  0.0000000E+00
  0.3360000E+03 -0.3869026E+00 -0.4856526E+00  0.7245520E+00  0.2941681E+00  0.2754480E+00  0.1118319E+00  0.0000000E+00
  0.3480000E+03 -0.4071005E+00 -0.5058505E+00  0.7176619E+00  0.2913707E+00  0.2823381E+00  0.1146293E+00  0.0000000E+00
  0.3600000E+03 -0.4266794E+00 -0.5254294E+00  0.7112221E+00  0.2887562E+00  0.2887779E+00  0.1172438E+00  0.0000000E+00
  0.3720000E+03 -0.4456913E+00 -0.5444413E+00  0.7051815E+00  0.2863037E+00  0.2948185E+00  0.1196963E+00  0.0000000E+00
  0.3840000E+03 -0.4641819E+00 -0.5629319E+00  0.6994970E+00  0.2839958E+00  0.3005030E+00  0.1220042E+00  0.0000000E+00
  0.3960000E+03 -0.4821913E+00 -0.5809413E+00  0.6941319E+00  0.2818175E+00  0.3058681E+00  0.1241825E+00  0.0000000E+00
  0.4080000E+03 -0.4997549E+00 -0.5985049E+00  0.6890545E+00  0.2797561E+00  0.3109455E+00  0.1262439E+00  0.0000000E+00
  0.4200000E+03 -0.5169042E+00 -0.6156542E+00  0.6842377E+00  0.2778005E+00  0.3157623E+00  0.1281995E+00  0.0000000E+00
  0.4320000E+03 -0.5336670E+00 -0.6324170E+00  0.6796577E+00  0.2759410E+00  0.3203423E+00  0.1300590E+00  0.0000000E+00
  0.4440000E+03 -0.5500683E+00 -0.6488183E+00  0.6752940E+00  0.2741694E+00  0.3247060E+00  0.1318306E+00  0.0000000E+00
  0.4560000E+03 -0.5661305E+00 -0.6648805E+00  0.6711284E+00  0.2724781E+00  0.3288716E+00  0.1335219E+00  0.0000000E+00
  0.4680000E+03 -0.5818736E+00 -0.6806236E+00  0.6671449E+00  0.2708608E+00  0.3328551E+00  0.1351392E+00  0.0000000E+00
  0.4800000E+03 -0.5973158E+00 -0.6960658E+00  0.6633294E+00  0.2693117E+00  0.3366706E+00  0.1366883E+00  0.0000000E+00
  0.4920000E+03 -0.6124735E+00 -0.7112235E+00  0.6596693E+00  0.2678257E+00  0.3403307E+00  0.1381743E+00  0.0000000E+00
  0.5040000E+03 -0.6273618E+00 -0.7261118E+00  0.6561533E+00  0.2663982E+00  0.3438467E+00  0.1396018E+00  0.0000000E+00
  0.5160000E+03 -0.6419941E+00 -0.7407441E+00  0.6527713E+00  0.2650251E+00  0.3472287E+00  0.1409749E+00  0.0000000E+00
  0.5280000E+03 -0.6563830E+00 -0.7551330E+00  0.6495142E+00  0.2637028E+00  0.3504858E+00  0.1422972E+00  0.0000000E+00
  0.5400000E+03 -0.6705400E+00 -0.7692900E+00  0.6463739E+00  0.2624278E+00  0.3536261E+00  0.1435722E+00  0.0000000E+00
  0.5520000E+03 -0.6844755E+00 -0.7832255E+00  0.6433429E+00  0.2611972E+00  0.3566571E+00  0.1448028E+00  0.0000000E+00
  0.5640000E+03 -0.6981993E+00 -0.7969493E+00  0.6404144E+00  0.2600082E+00  0.3595856E+00  0.1459918E+00  0.0000000E+00
  0.5760000E+03 -0.7117204E+00 -0.8104704E+00  0.6375822E+00  0.2588584E+00  0.3624178E+00  0.1471416E+00  0.0000000E+00
  0.5880000E+03 -0.7250471E+00 -0.8237971E+00  0.6348408E+00  0.2577454E+00  0.3651592E+00  0.1482546E+00  0.0000000E+00
  0.6000000E+03 -0.7381871E+00 -0.8369371E+00  0.6321850E+00  0.2566671E+00  0.3678150E+00  0.1493329E+00  0.0000000E+00
  0.6120000E+03 -0.7511476E+00 -0.8498976E+00  0.6296101E+00  0.2556217E+00  0.3703899E+00  0.1503783E+00  0.0000000E+00
  0.6240000E+03 -0.7639354E+00 -0.8626854E+00  0.6271116E+00  0.2546073E+00  0.3728884E+00  0.1513927E+00  0.0000000E+00
  0.6360000E+03 -0.7765568E+00 -0.8753068E+00  0.6246856E+00  0.2536224E+00  0.3753144E+00  0.1523776E+00  0.0000000E+00
  0.6480000E+03 -0.7890175E+00 -0.8877675E+00  0.6223284E+00  0.2526653E+00  0.3776716E+00  0.1533347E+00  0.0000000E+00
  0.6600000E+03 -0.8013232E+00 -0.9000732E+00  0.6200364E+00  0.2517348E+00  0.3799636E+00  0.1542652E+00  0.0000000E+00
  0.6720000E+03 -0.8134789E+00 -0.9122289E+00  0.6178066E+00  0.2508295E+00  0.3821934E+00  0.1551705E+00  0.0000000E+00
  0.6840000E+03 -0.7754170E+00 -0.8741670E+00  0.6249031E+00  0.2537106E+00  0.3750969E+00  0.1522894E+00  0.0000000E+00
  0.6960000E+03 -0.4715078E+00 -0.5702578E+00  0.6972946E+00  0.2831016E+00  0.3027054E+00  0.1228984E+00  0.0000000E+00
  0.7080000E+03 -0.3303988E+00 -0.4291488E+00  0.7452913E+00  0.3025883E+00  0.2547087E+00  0.1034117E+00  0.0000000E+00
  0.7200000E+03 -0.2950249E+00 -0.3937749E+00  0.7595046E+00  0.3083589E+00  0.2404954E+00  0.9764114E-01  0.0000000E+00
  0.7320000E+03 -0.2938013E+00 -0.3925513E+00  0.7600149E+00  0.3085660E+00  0.2399851E+00  0.9743397E-01  0.0000000E+00
  0.7440000E+03 -0.3042927E+00 -0.4030427E+00  0.7556813E+00  0.3068066E+00  0.2443187E+00  0.9919339E-01  0.0000000E+00
  0.7560000E+03 -0.3193908E+00 -0.4181408E+00  0.7496057E+00  0.3043399E+00  0.2503943E+00  0.1016601E+00  0.0000000E+00
  0.7680000E+03 -0.3365241E+00 -0.4352741E+00  0.7429312E+00  0.3016301E+00  0.2570688E+00  0.1043699E+00  0.0000000E+00
  0.7800000E+03 -0.3546027E+00 -0.4533527E+00  0.7361293E+00  0.2988685E+00  0.2638707E+00  0.1071315E+00  0.0000000E+00
  0.7920000E+03 -0.3730865E+00 -0.4718365E+00  0.7294171E+00  0.2961433E+00  0.2705829E+00  0.1098567E+00  0.0000000E+00
  0.8040000E+03 -0.3916742E+00 -0.4904242E+00  0.7229009E+00  0.2934978E+00  0.2770991E+00  0.1125022E+00  0.0000000E+00
  0.8160000E+03 -0.4101860E+00 -0.5089360E+00  0.7166318E+00  0.2909525E+00  0.2833682E+00  0.1150475E+00  0.0000000E+00
  0.8280000E+03 -0.4285122E+00 -0.5272622E+00  0.7106308E+00  0.2885161E+00  0.2893692E+00  0.1174839E+00  0.0000000E+00
  0.8400000E+03 -0.4465867E+00 -0.5453367E+00  0.7049020E+00  0.2861902E+00  0.2950980E+00  0.1198098E+00  0.0000000E+00
  0.8520000E+03 -0.3808940E+00 -0.4796440E+00  0.7266523E+00  0.2950208E+00  0.2733477E+00  0.1109792E+00  0.0000000E+00
  0.8640000E+03 -0.1747741E+00 -0.2735241E+00  0.8166517E+00  0.3315606E+00  0.1833483E+00  0.7443940E-01  0.0000000E+00
  0.8760000E+03 -0.1436709E+00 -0.2424209E+00  0.8341085E+00  0.3386480E+00  0.1658915E+00  0.6735195E-01  0.0000000E+00
  0.8880000E+03 -0.1573509E+00 -0.2561009E+00  0.8262771E+00  0.3354685E+00  0.1737229E+00  0.7053149E-01  0.0000000E+00
  0.9000000E+03 -0.1810838E+00 -0.2798338E+00  0.8132593E+00  0.3301833E+00  0.1867407E+00  0.7581673E-01  0.0000000E+00
  0.9120000E+03 -0.2070369E+00 -0.3057869E+00  0.7998042E+00  0.3247205E+00  0.2001958E+00  0.8127948E-01  0.0000000E+00
  0.9240000E+03 -0.2330634E+00 -0.3318134E+00  0.7870730E+00  0.3195516E+00  0.2129270E+00  0.8644837E-01  0.0000000E+00
  0.9360000E+03 -0.2584762E+00 -0.3572262E+00  0.7753234E+00  0.3147813E+00  0.2246766E+00  0.9121868E-01  0.0000000E+00
  0.9480000E+03 -0.2830542E+00 -0.3818042E+00  0.7645526E+00  0.3104084E+00  0.2354474E+00  0.9559164E-01  0.0000000E+00
  0.9600000E+03 -0.3067499E+00 -0.4054999E+00  0.7546798E+00  0.3064000E+00  0.2453202E+00  0.9960001E-01  0.0000000E+00
  0.9720000E+03 -0.3295858E+00 -0.4283358E+00  0.7456067E+00  0.3027163E+00  0.2543933E+00  0.1032837E+00  0.0000000E+00
  0.9840000E+03 -0.3516115E+00 -0.4503615E+00  0.7372381E+00  0.2993187E+00  0.2627619E+00  0.1066813E+00  0.0000000E+00
  0.9960000E+03 -0.3728854E+00 -0.4716354E+00  0.7294888E+00  0.2961725E+00  0.2705112E+00  0.1098275E+00  0.0000000E+00
  0.1008000E+04 -0.3934660E+00 -0.4922160E+00  0.7222847E+00  0.2932476E+00  0.2777153E+00  0.1127524E+00  0.0000000E+00
  0.1020000E+04 -0.3278676E+00 -0.4266176E+00  0.7462749E+00  0.3029876E+00  0.2537251E+00  0.1030124E+00  0.0000000E+00
  0.1032000E+04 -0.1427849E+00 -0.2415349E+00  0.8346243E+00  0.3388574E+00  0.1653757E+00  0.6714255E-01  0.0000000E+00
  0.1044000E+04 -0.1237592E+00 -0.2225092E+00  0.8459555E+00  0.3434579E+00  0.1540445E+00  0.6254205E-01  0.0000000E+00
  0.1056000E+04 -0.1425909E+00 -0.2413409E+00  0.8347373E+00  0.3389033E+00  0.1652627E+00  0.6709665E-01  0.0000000E+00
  0.1068000E+04 -0.1691188E+00 -0.2678688E+00  0.8197341E+00  0.3328120E+00  0.1802659E+00  0.7318797E-01  0.0000000E+00
  0.1080000E+04 -0.1968597E+00 -0.2956097E+00  0.8049868E+00  0.3268247E+00  0.1950132E+00  0.7917535E-01  0.0000000E+00
  0.1092000E+04 -0.2241286E+00 -0.3228786E+00  0.7913612E+00  0.3212926E+00  0.2086388E+00  0.8470736E-01  0.0000000E+00
  0.1104000E+04 -0.2504472E+00 -0.3491972E+00  0.7789661E+00  0.3162602E+00  0.2210339E+00  0.8973978E-01  0.0000000E+00
  0.1116000E+04 -0.2757092E+00 -0.3744592E+00  0.7677130E+00  0.3116915E+00  0.2322870E+00  0.9430853E-01  0.0000000E+00
  0.1128000E+04 -0.2999375E+00 -0.3986875E+00  0.7574689E+00  0.3075324E+00  0.2425311E+00  0.9846761E-01  0.0000000E+00
  0.1140000E+04 -0.3231991E+00 -0.4219491E+00  0.7481024E+00  0.3037296E+00  0.2518976E+00  0.1022704E+00  0.0000000E+00
  0.1152000E+04 -0.3455732E+00 -0.4443232E+00  0.7394964E+00  0.3002355E+00  0.2605036E+00  0.1057645E+00  0.0000000E+00
  0.1164000E+04 -0.3671382E+00 -0.4658882E+00  0.7315512E+00  0.2970098E+00  0.2684488E+00  0.1089902E+00  0.0000000E+00
  0.1176000E+04 -0.3879665E+00 -0.4867165E+00  0.7241826E+00  0.2940181E+00  0.2758174E+00  0.1119819E+00  0.0000000E+00
  0.1188000E+04 -0.3223593E+00 -0.4211093E+00  0.7484329E+00  0.3038637E+00  0.2515671E+00  0.1021363E+00  0.0000000E+00
  0.1200000E+04 -0.1395053E+00 -0.2382553E+00  0.8365424E+00  0.3396362E+00  0.1634576E+00  0.6636377E-01  0.0000000E+00
  0.1212000E+04 -0.1217248E+00 -0.2204748E+00  0.8471967E+00  0.3439619E+00  0.1528033E+00  0.6203815E-01  0.0000000E+00
  0.1224000E+04 -0.1410887E+00 -0.2398387E+00  0.8356145E+00  0.3392595E+00  0.1643855E+00  0.6674050E-01  0.0000000E+00
  0.1236000E+04 -0.1679052E+00 -0.2666552E+00  0.8204007E+00  0.3330827E+00  0.1795993E+00  0.7291730E-01  0.0000000E+00
  0.1248000E+04 -0.1958294E+00 -0.2945794E+00  0.8055181E+00  0.3270404E+00  0.1944819E+00  0.7895963E-01  0.0000000E+00
  0.1260000E+04 -0.2232246E+00 -0.3219746E+00  0.7917998E+00  0.3214707E+00  0.2082002E+00  0.8452930E-01  0.0000000E+00
  0.1272000E+04 -0.2496347E+00 -0.3483847E+00  0.7793382E+00  0.3164113E+00  0.2206618E+00  0.8958870E-01  0.0000000E+00
  0.1284000E+04 -0.2749657E+00 -0.3737157E+00  0.7680357E+00  0.3118225E+00  0.2319643E+00  0.9417752E-01  0.0000000E+00
  0.1296000E+04 -0.2992474E+00 -0.3979974E+00  0.7577536E+00  0.3076480E+00  0.2422464E+00  0.9835203E-01  0.0000000E+00
  0.1308000E+04 -0.3225518E+00 -0.4213018E+00  0.7483571E+00  0.3038330E+00  0.2516429E+00  0.1021670E+00  0.0000000E+00
  0.1320000E+04 -0.3449610E+00 -0.4437110E+00  0.7397269E+00  0.3003291E+00  0.2602731E+00  0.1056709E+00  0.0000000E+00
  0.1332000E+04 -0.3665553E+00 -0.4653053E+00  0.7317617E+00  0.2970952E+00  0.2682383E+00  0.1089048E+00  0.0000000E+00
  0.1344000E+04 -0.3874086E+00 -0.4861586E+00  0.7243762E+00  0.2940967E+00  0.2756238E+00  0.1119033E+00  0.0000000E+00
  0.1356000E+04 -0.3218003E+00 -0.4205503E+00  0.7486532E+00  0.3039532E+00  0.2513468E+00  0.1020468E+00  0.0000000E+00
  0.1368000E+04 -0.1391730E+00 -0.2379230E+00  0.8367376E+00  0.3397155E+00  0.1632624E+00  0.6628453E-01  0.0000000E+00
  0.1380000E+04 -0.1215187E+00 -0.2202687E+00  0.8473227E+00  0.3440130E+00  0.1526773E+00  0.6198698E-01  0.0000000E+00
  0.1392000E+04 -0.1409366E+00 -0.2396866E+00  0.8357035E+00  0.3392956E+00  0.1642965E+00  0.6670437E-01  0.0000000E+00
  0.1404000E+04 -0.1677824E+00 -0.2665324E+00  0.8204683E+00  0.3331101E+00  0.1795317E+00  0.7288987E-01  0.0000000E+00
  0.1416000E+04 -0.1957251E+00 -0.2944751E+00  0.8055720E+00  0.3270622E+00  0.1944280E+00  0.7893778E-01  0.0000000E+00
  0.1428000E+04 -0.2231331E+00 -0.3218831E+00  0.7918442E+00  0.3214887E+00  0.2081558E+00  0.8451126E-01  0.0000000E+00
  0.1440000E+04 -0.2495525E+00 -0.3483025E+00  0.7793759E+00  0.3164266E+00  0.2206241E+00  0.8957340E-01  0.0000000E+00
  0.1452000E+04 -0.2748904E+00 -0.3736404E+00  0.7680683E+00  0.3118357E+00  0.2319317E+00  0.9416425E-01  0.0000000E+00
  0.1464000E+04 -0.2991776E+00 -0.3979276E+00  0.7577825E+00  0.3076597E+00  0.2422175E+00  0.9834032E-01  0.0000000E+00
  0.1476000E+04 -0.3224863E+00 -0.4212363E+00  0.7483829E+00  0.3038434E+00  0.2516171E+00  0.1021566E+00  0.0000000E+00
  0.1488000E+04 -0.3448990E+00 -0.4436490E+00  0.7397502E+00  0.3003386E+00  0.2602498E+00  0.1056614E+00  0.0000000E+00
  0.1500000E+04 -0.3664963E+00 -0.4652463E+00  0.7317830E+00  0.2971039E+00  0.2682170E+00  0.1088961E+00  0.0000000E+00
  0.1512000E+04 -0.3873521E+00 -0.4861021E+00  0.7243958E+00  0.2941047E+00  0.2756042E+00  0.1118953E+00  0.0000000E+00
  0.1524000E+04 -0.3217437E+00 -0.4204937E+00  0.7486755E+00  0.3039623E+00  0.2513245E+00  0.1020377E+00  0.0000000E+00
  0.1536000E+04 -0.1391393E+00 -0.2378893E+00  0.8367574E+00  0.3397235E+00  0.1632426E+00  0.6627651E-01  0.0000000E+00
  0.1548000E+04 -0.1214979E+00 -0.2202479E+00  0.8473355E+00  0.3440182E+00  0.1526645E+00  0.6198180E-01  0.0000000E+00
  0.1560000E+04 -0.1409212E+00 -0.2396712E+00  0.8357125E+00  0.3392993E+00  0.1642875E+00  0.6670071E-01  0.0000000E+00
  0.1572000E+04 -0.1677700E+00 -0.2665200E+00  0.8204751E+00  0.3331129E+00  0.1795249E+00  0.7288709E-01  0.0000000E+00
  0.1584000E+04 -0.1957146E+00 -0.2944646E+00  0.8055774E+00  0.3270644E+00  0.1944226E+00  0.7893557E-01  0.0000000E+00
  0.1596000E+04 -0.2231239E+00 -0.3218739E+00  0.7918487E+00  0.3214906E+00  0.2081513E+00  0.8450944E-01  0.0000000E+00
  0.1608000E+04 -0.2495442E+00 -0.3482942E+00  0.7793797E+00  0.3164282E+00  0.2206203E+00  0.8957185E-01  0.0000000E+00
  0.1620000E+04 -0.2748828E+00 -0.3736328E+00  0.7680716E+00  0.3118371E+00  0.2319284E+00  0.9416291E-01  0.0000000E+00
  0.1632000E+04 -0.2991705E+00 -0.3979205E+00  0.7577854E+00  0.3076609E+00  0.2422146E+00  0.9833914E-01  0.0000000E+00
  0.1644000E+04 -0.3224797E+00 -0.4212297E+00  0.7483855E+00  0.3038445E+00  0.2516145E+00  0.1021555E+00  0.0000000E+00