title = "dataset falk221"
variables = "time", "h_w", "p_w", "s_w", "theta_a", "s_a", "theta_g", "q_root"
zone t = "Flow variables, volume =   160, delx =  1.00E+00, dely =  1.00E+00, delz =  1.25E-03", f=point
  0.1000000E-05 -0.2034181E+00 -0.4021681E+00  0.7560390E+00  0.3069518E+00  0.2439610E+00  0.9904816E-01  0.0000000E+00
  0.2000000E-05 -0.2034181E+00 -0.4021681E+00  0.7560390E+00  0.3069518E+00  0.2439610E+00  0.9904816E-01  0.0000000E+00
  0.3558387E-05 -0.2034181E+00 -0.4021681E+00  0.7560390E+00  0.3069518E+00  0.2439610E+00  0.9904816E-01  0.0000000E+00
  0.6181544E-05 -0.2034181E+00 -0.4021681E+00  0.7560390E+00  0.3069518E+00  0.2439610E+00  0.9904816E-01  0.0000000E+00
  0.1026944E-04 -0.2034181E+00 -0.4021681E+00  0.7560390E+00  0.3069518E+00  0.2439610E+00  0.9904816E-01  0.0000000E+00
  0.1663996E-04 -0.2034181E+00 -0.4021681E+00  0.7560390E+00  0.3069518E+00  0.2439610E+00  0.9904816E-01  0.0000000E+00
  0.2656771E-04 -0.2034181E+00 -0.4021681E+00  0.7560390E+00  0.3069518E+00  0.2439610E+00  0.9904817E-01  0.0000000E+00
  0.4203898E-04 -0.2034182E+00 -0.4021682E+00  0.7560390E+00  0.3069518E+00  0.2439610E+00  0.9904817E-01  0.0000000E+00
  0.6614922E-04 -0.2034182E+00 -0.4021682E+00  0.7560390E+00  0.3069518E+00  0.2439610E+00  0.9904818E-01  0.0000000E+00
  0.1037223E-03 -0.2034183E+00 -0.4021683E+00  0.7560390E+00  0.3069518E+00  0.2439610E+00  0.9904819E-01  0.0000000E+00
  0.1622757E-03 -0.2034184E+00 -0.4021684E+00  0.7560389E+00  0.3069518E+00  0.2439611E+00  0.9904820E-01  0.0000000E+00
  0.2535247E-03 -0.2034185E+00 -0.4021685E+00  0.7560389E+00  0.3069518E+00  0.2439611E+00  0.9904823E-01  0.0000000E+00
  0.3865417E-03 -0.2034187E+00 -0.4021687E+00  0.7560388E+00  0.3069517E+00  0.2439612E+00  0.9904826E-01  0.0000000E+00
  0.5804457E-03 -0.2034190E+00 -0.4021690E+00  0.7560386E+00  0.3069517E+00  0.2439614E+00  0.9904831E-01  0.0000000E+00
  0.8631069E-03 -0.2034195E+00 -0.4021695E+00  0.7560385E+00  0.3069516E+00  0.2439615E+00  0.9904839E-01  0.0000000E+00
  0.1275153E-02 -0.2034201E+00 -0.4021701E+00  0.7560382E+00  0.3069515E+00  0.2439618E+00  0.9904850E-01  0.0000000E+00
  0.1875808E-02 -0.2034211E+00 -0.4021711E+00  0.7560378E+00  0.3069513E+00  0.2439622E+00  0.9904866E-01  0.0000000E+00
  0.2751406E-02 -0.2034225E+00 -0.4021725E+00  0.7560372E+00  0.3069511E+00  0.2439628E+00  0.9904889E-01  0.0000000E+00
  0.3954800E-02 -0.2034244E+00 -0.4021744E+00  0.7560364E+00  0.3069508E+00  0.2439636E+00  0.9904921E-01  0.0000000E+00
  0.5608706E-02 -0.2034271E+00 -0.4021771E+00  0.7560353E+00  0.3069503E+00  0.2439647E+00  0.9904965E-01  0.0000000E+00
  0.7881784E-02 -0.2034308E+00 -0.4021808E+00  0.7560338E+00  0.3069497E+00  0.2439662E+00  0.9905026E-01  0.0000000E+00
  0.1100583E-01 -0.2034358E+00 -0.4021858E+00  0.7560318E+00  0.3069489E+00  0.2439682E+00  0.9905110E-01  0.0000000E+00
  0.1507909E-01 -0.2034423E+00 -0.4021923E+00  0.7560291E+00  0.3069478E+00  0.2439709E+00  0.9905218E-01  0.0000000E+00
  0.2067724E-01 -0.2034513E+00 -0.4022013E+00  0.7560254E+00  0.3069463E+00  0.2439746E+00  0.9905368E-01  0.0000000E+00
  0.2797635E-01 -0.2034630E+00 -0.4022130E+00  0.7560206E+00  0.3069444E+00  0.2439794E+00  0.9905563E-01  0.0000000E+00
  0.3749322E-01 -0.2034783E+00 -0.4022283E+00  0.7560144E+00  0.3069418E+00  0.2439856E+00  0.9905817E-01  0.0000000E+00
  0.4990169E-01 -0.2034983E+00 -0.4022483E+00  0.7560062E+00  0.3069385E+00  0.2439938E+00  0.9906148E-01  0.0000000E+00
  0.6467073E-01 -0.2035220E+00 -0.4022720E+00  0.7559965E+00  0.3069346E+00  0.2440035E+00  0.9906543E-01  0.0000000E+00
  0.8224941E-01 -0.2035503E+00 -0.4023003E+00  0.7559849E+00  0.3069299E+00  0.2440151E+00  0.9907012E-01  0.0000000E+00
  0.1031722E+00 -0.2035839E+00 -0.4023339E+00  0.7559712E+00  0.3069243E+00  0.2440288E+00  0.9907571E-01  0.0000000E+00
  0.1250718E+00 -0.2036191E+00 -0.4023691E+00  0.7559568E+00  0.3069184E+00  0.2440432E+00  0.9908155E-01  0.0000000E+00
  0.1500969E+00 -0.2036593E+00 -0.4024093E+00  0.7559403E+00  0.3069118E+00  0.2440597E+00  0.9908823E-01  0.0000000E+00
  0.1734499E+00 -0.2036968E+00 -0.4024468E+00  0.7559250E+00  0.3069055E+00  0.2440750E+00  0.9909446E-01  0.0000000E+00
  0.2012455E+00 -0.2037414E+00 -0.4024914E+00  0.7559067E+00  0.3068981E+00  0.2440933E+00  0.9910187E-01  0.0000000E+00
  0.2263631E+00 -0.2037817E+00 -0.4025317E+00  0.7558902E+00  0.3068914E+00  0.2441098E+00  0.9910857E-01  0.0000000E+00
  0.2562591E+00 -0.2038297E+00 -0.4025797E+00  0.7558706E+00  0.3068835E+00  0.2441294E+00  0.9911654E-01  0.0000000E+00
  0.2844061E+00 -0.2038749E+00 -0.4026249E+00  0.7558521E+00  0.3068760E+00  0.2441479E+00  0.9912405E-01  0.0000000E+00
  0.3179079E+00 -0.2039287E+00 -0.4026787E+00  0.7558301E+00  0.3068670E+00  0.2441699E+00  0.9913297E-01  0.0000000E+00
  0.3487913E+00 -0.2039782E+00 -0.4027282E+00  0.7558099E+00  0.3068588E+00  0.2441901E+00  0.9914119E-01  0.0000000E+00
  0.3855500E+00 -0.2040371E+00 -0.4027871E+00  0.7557858E+00  0.3068490E+00  0.2442142E+00  0.9915096E-01  0.0000000E+00
  0.4202048E+00 -0.2040924E+00 -0.4028424E+00  0.7557632E+00  0.3068398E+00  0.2442368E+00  0.9916015E-01  0.0000000E+00
  0.4614522E+00 -0.2041580E+00 -0.4029080E+00  0.7557364E+00  0.3068290E+00  0.2442636E+00  0.9917103E-01  0.0000000E+00
  0.4993969E+00 -0.2042179E+00 -0.4029679E+00  0.7557119E+00  0.3068190E+00  0.2442881E+00  0.9918098E-01  0.0000000E+00
  0.5445602E+00 -0.2042882E+00 -0.4030382E+00  0.7556831E+00  0.3068074E+00  0.2443169E+00  0.9919265E-01  0.0000000E+00
  0.5873792E+00 -0.2043536E+00 -0.4031036E+00  0.7556564E+00  0.3067965E+00  0.2443436E+00  0.9920349E-01  0.0000000E+00
  0.6383440E+00 -0.2044287E+00 -0.4031787E+00  0.7556258E+00  0.3067841E+00  0.2443742E+00  0.9921594E-01  0.0000000E+00
  0.6851412E+00 -0.2044943E+00 -0.4032443E+00  0.7555990E+00  0.3067732E+00  0.2444010E+00  0.9922682E-01  0.0000000E+00
  0.7408411E+00 -0.2045657E+00 -0.4033157E+00  0.7555698E+00  0.3067613E+00  0.2444302E+00  0.9923867E-01  0.0000000E+00
  0.7941860E+00 -0.2046262E+00 -0.4033762E+00  0.7555451E+00  0.3067513E+00  0.2444549E+00  0.9924869E-01  0.0000000E+00
  0.8576791E+00 -0.2046828E+00 -0.4034328E+00  0.7555220E+00  0.3067419E+00  0.2444780E+00  0.9925808E-01  0.0000000E+00
  0.9145187E+00 -0.2047181E+00 -0.4034681E+00  0.7555076E+00  0.3067361E+00  0.2444924E+00  0.9926393E-01  0.0000000E+00
  0.9821713E+00 -0.2047325E+00 -0.4034825E+00  0.7555017E+00  0.3067337E+00  0.2444983E+00  0.9926632E-01  0.0000000E+00
  0.1048797E+01 -0.2047141E+00 -0.4034641E+00  0.7555092E+00  0.3067367E+00  0.2444908E+00  0.9926326E-01  0.0000000E+00
  0.1128098E+01 -0.2046354E+00 -0.4033854E+00  0.7555413E+00  0.3067498E+00  0.2444587E+00  0.9925022E-01  0.0000000E+00
  0.1196707E+01 -0.2045180E+00 -0.4032680E+00  0.7555893E+00  0.3067693E+00  0.2444107E+00  0.9923075E-01  0.0000000E+00
  0.1282000E+01 -0.2042824E+00 -0.4030324E+00  0.7556855E+00  0.3068083E+00  0.2443145E+00  0.9919168E-01  0.0000000E+00
  0.1360931E+01 -0.2039773E+00 -0.4027273E+00  0.7558102E+00  0.3068590E+00  0.2441898E+00  0.9914105E-01  0.0000000E+00
  0.1454877E+01 -0.2034743E+00 -0.4022243E+00  0.7560160E+00  0.3069425E+00  0.2439840E+00  0.9905750E-01  0.0000000E+00
  0.1542945E+01 -0.2028670E+00 -0.4016170E+00  0.7562648E+00  0.3070435E+00  0.2437352E+00  0.9895651E-01  0.0000000E+00
  0.1647767E+01 -0.2019325E+00 -0.4006825E+00  0.7566481E+00  0.3071991E+00  0.2433519E+00  0.9880088E-01  0.0000000E+00
  0.1743941E+01 -0.2008840E+00 -0.3996340E+00  0.7570790E+00  0.3073741E+00  0.2429210E+00  0.9862591E-01  0.0000000E+00
  0.1858412E+01 -0.1993475E+00 -0.3980975E+00  0.7577123E+00  0.3076312E+00  0.2422877E+00  0.9836881E-01  0.0000000E+00
  0.1966664E+01 -0.1976251E+00 -0.3963751E+00  0.7584246E+00  0.3079204E+00  0.2415754E+00  0.9807963E-01  0.0000000E+00
  0.2095510E+01 -0.1951814E+00 -0.3939314E+00  0.7594394E+00  0.3083324E+00  0.2405606E+00  0.9766760E-01  0.0000000E+00
  0.2212727E+01 -0.1926294E+00 -0.3913794E+00  0.7605048E+00  0.3087649E+00  0.2394952E+00  0.9723506E-01  0.0000000E+00
  0.2352243E+01 -0.1891281E+00 -0.3878781E+00  0.7619756E+00  0.3093621E+00  0.2380244E+00  0.9663792E-01  0.0000000E+00
  0.2486033E+01 -0.1853566E+00 -0.3841066E+00  0.7635719E+00  0.3100102E+00  0.2364281E+00  0.9598981E-01  0.0000000E+00
  0.2645276E+01 -0.1803111E+00 -0.3790611E+00  0.7657272E+00  0.3108852E+00  0.2342728E+00  0.9511476E-01  0.0000000E+00
  0.2786879E+01 -0.1754189E+00 -0.3741689E+00  0.7678389E+00  0.3117426E+00  0.2321611E+00  0.9425740E-01  0.0000000E+00
  0.2962915E+01 -0.1687724E+00 -0.3675224E+00  0.7707430E+00  0.3129217E+00  0.2292570E+00  0.9307834E-01  0.0000000E+00
  0.3119265E+01 -0.1624890E+00 -0.3612390E+00  0.7735263E+00  0.3140517E+00  0.2264737E+00  0.9194832E-01  0.0000000E+00
  0.3313634E+01 -0.1541874E+00 -0.3529374E+00  0.7772614E+00  0.3155681E+00  0.2227386E+00  0.9043188E-01  0.0000000E+00
  0.3486309E+01 -0.1465227E+00 -0.3452727E+00  0.7807696E+00  0.3169925E+00  0.2192304E+00  0.8900755E-01  0.0000000E+00
  0.3700973E+01 -0.1366679E+00 -0.3354179E+00  0.7853667E+00  0.3188589E+00  0.2146333E+00  0.8714112E-01  0.0000000E+00
  0.3892106E+01 -0.1277576E+00 -0.3265076E+00  0.7896093E+00  0.3205814E+00  0.2103907E+00  0.8541864E-01  0.0000000E+00
  0.4129715E+01 -0.1165950E+00 -0.3153450E+00  0.7950431E+00  0.3227875E+00  0.2049569E+00  0.8321249E-01  0.0000000E+00
  0.4340986E+01 -0.1067348E+00 -0.3054848E+00  0.7999563E+00  0.3247823E+00  0.2000437E+00  0.8121773E-01  0.0000000E+00
  0.4603630E+01 -0.9467457E-01 -0.2934246E+00  0.8061151E+00  0.3272827E+00  0.1938849E+00  0.7871726E-01  0.0000000E+00
  0.4838353E+01 -0.8417807E-01 -0.2829281E+00  0.8116134E+00  0.3295150E+00  0.1883866E+00  0.7648498E-01  0.0000000E+00
  0.5130153E+01 -0.7161229E-01 -0.2703623E+00  0.8183701E+00  0.3322583E+00  0.1816299E+00  0.7374172E-01  0.0000000E+00
  0.5389104E+01 -0.6093866E-01 -0.2596887E+00  0.8242636E+00  0.3346510E+00  0.1757364E+00  0.7134898E-01  0.0000000E+00
  0.5711023E+01 -0.4838962E-01 -0.2471396E+00  0.8313794E+00  0.3375400E+00  0.1686206E+00  0.6845997E-01  0.0000000E+00
  0.6001074E+01 -0.3772699E-01 -0.2364770E+00  0.8375886E+00  0.3400610E+00  0.1624114E+00  0.6593904E-01  0.0000000E+00
  0.6361655E+01 -0.2538841E-01 -0.2241384E+00  0.8449658E+00  0.3430561E+00  0.1550342E+00  0.6294388E-01  0.0000000E+00
  0.6678745E+01 -0.1527036E-01 -0.2140204E+00  0.8511726E+00  0.3455761E+00  0.1488274E+00  0.6042394E-01  0.0000000E+00
  0.7092181E+01 -0.3166947E-02 -0.2019169E+00  0.8587870E+00  0.3486675E+00  0.1412130E+00  0.5733249E-01  0.0000000E+00
  0.7426029E+01  0.5888113E-02 -0.1928619E+00  0.8646206E+00  0.3510360E+00  0.1353794E+00  0.5496402E-01  0.0000000E+00
  0.7912692E+01  0.1782594E-01 -0.1809241E+00  0.8724924E+00  0.3542319E+00  0.1275076E+00  0.5176807E-01  0.0000000E+00
  0.8256939E+01  0.2562821E-01 -0.1731218E+00  0.8777487E+00  0.3563660E+00  0.1222513E+00  0.4963401E-01  0.0000000E+00
  0.8793411E+01  0.3654537E-01 -0.1622046E+00  0.8852509E+00  0.3594119E+00  0.1147491E+00  0.4658813E-01  0.0000000E+00
  0.9215810E+01  0.4439593E-01 -0.1543541E+00  0.8907508E+00  0.3616448E+00  0.1092492E+00  0.4435518E-01  0.0000000E+00
  0.9831557E+01  0.5455960E-01 -0.1441904E+00  0.8979989E+00  0.3645875E+00  0.1020011E+00  0.4141245E-01  0.0000000E+00
  0.1028309E+02  0.6135798E-01 -0.1373920E+00  0.9029251E+00  0.3665876E+00  0.9707486E-01  0.3941239E-01  0.0000000E+00
  0.1098676E+02  0.7068675E-01 -0.1280633E+00  0.9097822E+00  0.3693716E+00  0.9021783E-01  0.3662844E-01  0.0000000E+00
  0.1149640E+02  0.7682272E-01 -0.1219273E+00  0.9143504E+00  0.3712263E+00  0.8564961E-01  0.3477374E-01  0.0000000E+00
  0.1229062E+02  0.8518283E-01 -0.1135672E+00  0.9206428E+00  0.3737810E+00  0.7935721E-01  0.3221903E-01  0.0000000E+00
  0.1288354E+02  0.9081382E-01 -0.1079362E+00  0.9249215E+00  0.3755181E+00  0.7507852E-01  0.3048188E-01  0.0000000E+00
  0.1380754E+02  0.9840411E-01 -0.1003459E+00  0.9307337E+00  0.3778779E+00  0.6926626E-01  0.2812210E-01  0.0000000E+00
  0.1445315E+02  0.1031858E+00 -0.9556423E-01  0.9344177E+00  0.3793736E+00  0.6558228E-01  0.2662641E-01  0.0000000E+00
  0.1545926E+02  0.1096155E+00 -0.8913453E-01  0.9393927E+00  0.3813935E+00  0.6060726E-01  0.2460655E-01  0.0000000E+00
  0.1629646E+02  0.1143516E+00 -0.8439837E-01  0.9430686E+00  0.3828859E+00  0.5693138E-01  0.2311414E-01  0.0000000E+00
  0.1744708E+02  0.1199164E+00 -0.7883363E-01  0.9473940E+00  0.3846420E+00  0.5260603E-01  0.2135805E-01  0.0000000E+00
  0.1843659E+02  0.1241074E+00 -0.7464261E-01  0.9506520E+00  0.3859647E+00  0.4934804E-01  0.2003531E-01  0.0000000E+00
  0.1979653E+02  0.1289590E+00 -0.6979096E-01  0.9544188E+00  0.3874940E+00  0.4558121E-01  0.1850597E-01  0.0000000E+00
  0.2104404E+02  0.1327757E+00 -0.6597434E-01  0.9573746E+00  0.3886941E+00  0.4262540E-01  0.1730591E-01  0.0000000E+00
  0.2259490E+02  0.1367302E+00 -0.6201983E-01  0.9604263E+00  0.3899331E+00  0.3957370E-01  0.1606692E-01  0.0000000E+00
  0.2400000E+02  0.1397786E+00 -0.5897142E-01  0.9627685E+00  0.3908840E+00  0.3723147E-01  0.1511598E-01  0.0000000E+00
  0.2593112E+02  0.1168295E+00 -0.8192050E-01  0.9449941E+00  0.3836676E+00  0.5500587E-01  0.2233238E-01  0.0000000E+00
  0.2822961E+02  0.9412624E-01 -0.1046238E+00  0.9274521E+00  0.3765455E+00  0.7254792E-01  0.2945446E-01  0.0000000E+00
  0.3096537E+02  0.7315219E-01 -0.1255978E+00  0.9116123E+00  0.3701146E+00  0.8838765E-01  0.3588539E-01  0.0000000E+00
  0.3472530E+02  0.5080982E-01 -0.1479402E+00  0.8953083E+00  0.3634952E+00  0.1046917E+00  0.4250485E-01  0.0000000E+00
  0.4058474E+02  0.2411541E-01 -0.1746346E+00  0.8767227E+00  0.3559494E+00  0.1232773E+00  0.5005058E-01  0.0000000E+00
  0.4971600E+02 -0.7870285E-02 -0.2066203E+00  0.8558033E+00  0.3474561E+00  0.1441967E+00  0.5854387E-01  0.0000000E+00
  0.6171600E+02 -0.4164657E-01 -0.2403966E+00  0.8352884E+00  0.3391271E+00  0.1647116E+00  0.6687291E-01  0.0000000E+00
  0.7371600E+02 -0.7081164E-01 -0.2695616E+00  0.8188072E+00  0.3324357E+00  0.1811928E+00  0.7356426E-01  0.0000000E+00
  0.8571600E+02 -0.9691235E-01 -0.2956623E+00  0.8049597E+00  0.3268136E+00  0.1950403E+00  0.7918636E-01  0.0000000E+00
  0.9600000E+02 -0.1176900E+00 -0.3164400E+00  0.7945041E+00  0.3225687E+00  0.2054959E+00  0.8343132E-01  0.0000000E+00
  0.1080000E+03 -0.1401024E+00 -0.3388524E+00  0.7837534E+00  0.3182039E+00  0.2162466E+00  0.8779613E-01  0.0000000E+00
  0.1200000E+03 -0.1611368E+00 -0.3598868E+00  0.7741302E+00  0.3142969E+00  0.2258698E+00  0.9170314E-01  0.0000000E+00
  0.1320000E+03 -0.1810437E+00 -0.3797937E+00  0.7654128E+00  0.3107576E+00  0.2345872E+00  0.9524239E-01  0.0000000E+00
  0.1440000E+03 -0.2000046E+00 -0.3987546E+00  0.7574413E+00  0.3075212E+00  0.2425587E+00  0.9847885E-01  0.0000000E+00
  0.1560000E+03 -0.2181558E+00 -0.4169058E+00  0.7500958E+00  0.3045389E+00  0.2499042E+00  0.1014611E+00  0.0000000E+00
  0.1680000E+03 -0.2356032E+00 -0.4343532E+00  0.7432842E+00  0.3017734E+00  0.2567158E+00  0.1042266E+00  0.0000000E+00
  0.1800000E+03  0.2912407E-01 -0.1696259E+00  0.8801324E+00  0.3573338E+00  0.1198676E+00  0.4866624E-01  0.0000000E+00
  0.1920000E+03  0.1192690E+00 -0.7948104E-01  0.9468906E+00  0.3844376E+00  0.5310940E-01  0.2156241E-01  0.0000000E+00
  0.2040000E+03  0.4771724E-01 -0.1510328E+00  0.8931037E+00  0.3626001E+00  0.1068963E+00  0.4339991E-01  0.0000000E+00
  0.2160000E+03 -0.8995106E-03 -0.1996495E+00  0.8602367E+00  0.3492561E+00  0.1397633E+00  0.5674391E-01  0.0000000E+00
  0.2280000E+03 -0.3807679E-01 -0.2368268E+00  0.8373825E+00  0.3399773E+00  0.1626175E+00  0.6602272E-01  0.0000000E+00
  0.2400000E+03 -0.6901899E-01 -0.2677690E+00  0.8197888E+00  0.3328343E+00  0.1802112E+00  0.7316573E-01  0.0000000E+00
  0.2520000E+03 -0.9610879E-01 -0.2948588E+00  0.8053739E+00  0.3269818E+00  0.1946261E+00  0.7901818E-01  0.0000000E+00
  0.2640000E+03 -0.1205787E+00 -0.3193287E+00  0.7930885E+00  0.3219939E+00  0.2069115E+00  0.8400606E-01  0.0000000E+00
  0.2760000E+03 -0.1431356E+00 -0.3418856E+00  0.7823385E+00  0.3176294E+00  0.2176615E+00  0.8837057E-01  0.0000000E+00
  0.2880000E+03 -0.1642197E+00 -0.3629697E+00  0.7727560E+00  0.3137389E+00  0.2272440E+00  0.9226108E-01  0.0000000E+00
  0.3000000E+03 -0.1841233E+00 -0.3828733E+00  0.7640966E+00  0.3102232E+00  0.2359034E+00  0.9577677E-01  0.0000000E+00
  0.3120000E+03 -0.2030513E+00 -0.4018013E+00  0.7561892E+00  0.3070128E+00  0.2438108E+00  0.9898718E-01  0.0000000E+00
  0.3240000E+03 -0.2211537E+00 -0.4199037E+00  0.7489084E+00  0.3040568E+00  0.2510916E+00  0.1019432E+00  0.0000000E+00
  0.3360000E+03 -0.2385440E+00 -0.4372940E+00  0.7421592E+00  0.3013166E+00  0.2578408E+00  0.1046834E+00  0.0000000E+00
  0.3480000E+03 -0.2553109E+00 -0.4540609E+00  0.7358676E+00  0.2987623E+00  0.2641324E+00  0.1072377E+00  0.0000000E+00
  0.3600000E+03 -0.2715253E+00 -0.4702753E+00  0.7299749E+00  0.2963698E+00  0.2700251E+00  0.1096302E+00  0.0000000E+00
  0.3720000E+03 -0.2872448E+00 -0.4859948E+00  0.7244331E+00  0.2941198E+00  0.2755669E+00  0.1118802E+00  0.0000000E+00
  0.3840000E+03 -0.3025175E+00 -0.5012675E+00  0.7192028E+00  0.2919963E+00  0.2807972E+00  0.1140037E+00  0.0000000E+00
  0.3960000E+03 -0.3173836E+00 -0.5161336E+00  0.7142511E+00  0.2899860E+00  0.2857489E+00  0.1160140E+00  0.0000000E+00
  0.4080000E+03 -0.3318775E+00 -0.5306275E+00  0.7095501E+00  0.2880774E+00  0.2904499E+00  0.1179226E+00  0.0000000E+00
  0.4200000E+03 -0.3460289E+00 -0.5447789E+00  0.7050761E+00  0.2862609E+00  0.2949239E+00  0.1197391E+00  0.0000000E+00
  0.4320000E+03 -0.3598632E+00 -0.5586132E+00  0.7008084E+00  0.2845282E+00  0.2991916E+00  0.1214718E+00  0.0000000E+00
  0.4440000E+03 -0.3734031E+00 -0.5721531E+00  0.6967293E+00  0.2828721E+00  0.3032707E+00  0.1231279E+00  0.0000000E+00
  0.4560000E+03 -0.3866685E+00 -0.5854185E+00  0.6928233E+00  0.2812863E+00  0.3071767E+00  0.1247137E+00  0.0000000E+00
  0.4680000E+03 -0.3996769E+00 -0.5984269E+00  0.6890767E+00  0.2797652E+00  0.3109233E+00  0.1262348E+00  0.0000000E+00
  0.4800000E+03 -0.4124441E+00 -0.6111941E+00  0.6854774E+00  0.2783038E+00  0.3145226E+00  0.1276962E+00  0.0000000E+00
  0.4920000E+03 -0.4249843E+00 -0.6237343E+00  0.6820146E+00  0.2768979E+00  0.3179854E+00  0.1291021E+00  0.0000000E+00
  0.5040000E+03 -0.4373101E+00 -0.6360601E+00  0.6786786E+00  0.2755435E+00  0.3213214E+00  0.1304565E+00  0.0000000E+00
  0.5160000E+03 -0.4494332E+00 -0.6481832E+00  0.6754609E+00  0.2742371E+00  0.3245391E+00  0.1317629E+00  0.0000000E+00
  0.5280000E+03 -0.4613640E+00 -0.6601140E+00  0.6723537E+00  0.2729756E+00  0.3276463E+00  0.1330244E+00  0.0000000E+00
  0.5400000E+03 -0.4731122E+00 -0.6718622E+00  0.6693499E+00  0.2717561E+00  0.3306501E+00  0.1342439E+00  0.0000000E+00
  0.5520000E+03 -0.4846864E+00 -0.6834364E+00  0.6664433E+00  0.2705760E+00  0.3335567E+00  0.1354240E+00  0.0000000E+00
  0.5640000E+03 -0.4960948E+00 -0.6948448E+00  0.6636279E+00  0.2694329E+00  0.3363721E+00  0.1365671E+00  0.0000000E+00
  0.5760000E+03 -0.5073449E+00 -0.7060949E+00  0.6608985E+00  0.2683248E+00  0.3391015E+00  0.1376752E+00  0.0000000E+00
  0.5880000E+03 -0.5184434E+00 -0.7171934E+00  0.6582502E+00  0.2672496E+00  0.3417498E+00  0.1387504E+00  0.0000000E+00
  0.6000000E+03 -0.5293968E+00 -0.7281468E+00  0.6556786E+00  0.2662055E+00  0.3443214E+00  0.1397945E+00  0.0000000E+00
  0.6120000E+03 -0.5402108E+00 -0.7389608E+00  0.6531796E+00  0.2651909E+00  0.3468204E+00  0.1408091E+00  0.0000000E+00
  0.6240000E+03 -0.5508911E+00 -0.7496411E+00  0.6507495E+00  0.2642043E+00  0.3492505E+00  0.1417957E+00  0.0000000E+00
  0.6360000E+03 -0.5614428E+00 -0.7601928E+00  0.6483847E+00  0.2632442E+00  0.3516153E+00  0.1427558E+00  0.0000000E+00
  0.6480000E+03 -0.5718705E+00 -0.7706205E+00  0.6460819E+00  0.2623093E+00  0.3539181E+00  0.1436907E+00  0.0000000E+00
  0.6600000E+03 -0.5821789E+00 -0.7809289E+00  0.6438384E+00  0.2613984E+00  0.3561616E+00  0.1446016E+00  0.0000000E+00
  0.6720000E+03 -0.5923720E+00 -0.7911220E+00  0.6416511E+00  0.2605103E+00  0.3583489E+00  0.1454897E+00  0.0000000E+00
  0.6840000E+03 -0.9621601E-01 -0.2949660E+00  0.8053186E+00  0.3269594E+00  0.1946814E+00  0.7904064E-01  0.0000000E+00
  0.6960000E+03  0.7820949E-01 -0.1205405E+00  0.9153889E+00  0.3716479E+00  0.8461112E-01  0.3435211E-01  0.0000000E+00
  0.7080000E+03  0.7013383E-02 -0.1917366E+00  0.8653538E+00  0.3513337E+00  0.1346462E+00  0.5466634E-01  0.0000000E+00
  0.7200000E+03 -0.4506237E-01 -0.2438124E+00  0.8333007E+00  0.3383201E+00  0.1666993E+00  0.6767993E-01  0.0000000E+00
  0.7320000E+03 -0.8468828E-01 -0.2834383E+00  0.8113431E+00  0.3294053E+00  0.1886569E+00  0.7659471E-01  0.0000000E+00
  0.7440000E+03 -0.1169882E+00 -0.3157382E+00  0.7948494E+00  0.3227089E+00  0.2051506E+00  0.8329113E-01  0.0000000E+00
  0.7560000E+03 -0.1446150E+00 -0.3433650E+00  0.7816518E+00  0.3173506E+00  0.2183482E+00  0.8864935E-01  0.0000000E+00
  0.7680000E+03 -0.1690477E+00 -0.3677977E+00  0.7706219E+00  0.3128725E+00  0.2293781E+00  0.9312751E-01  0.0000000E+00
  0.7800000E+03 -0.1911830E+00 -0.3899330E+00  0.7611111E+00  0.3090111E+00  0.2388889E+00  0.9698891E-01  0.0000000E+00
  0.7920000E+03 -0.2115992E+00 -0.4103492E+00  0.7527179E+00  0.3056035E+00  0.2472821E+00  0.1003965E+00  0.0000000E+00
  0.8040000E+03 -0.2306865E+00 -0.4294365E+00  0.7451797E+00  0.3025430E+00  0.2548203E+00  0.1034570E+00  0.0000000E+00
  0.8160000E+03 -0.2487171E+00 -0.4474671E+00  0.7383173E+00  0.2997568E+00  0.2616827E+00  0.1062432E+00  0.0000000E+00
  0.8280000E+03 -0.2658861E+00 -0.4646361E+00  0.7320035E+00  0.2971934E+00  0.2679965E+00  0.1088066E+00  0.0000000E+00
  0.8400000E+03 -0.2823369E+00 -0.4810869E+00  0.7261457E+00  0.2948152E+00  0.2738543E+00  0.1111848E+00  0.0000000E+00
  0.8520000E+03  0.1204551E-01 -0.1867045E+00  0.8686551E+00  0.3526740E+00  0.1313449E+00  0.5332605E-01  0.0000000E+00
  0.8640000E+03  0.1133470E+00 -0.8540302E-01  0.9422883E+00  0.3825691E+00  0.5771169E-01  0.2343095E-01  0.0000000E+00
  0.8760000E+03  0.4188255E-01 -0.1568675E+00  0.8889805E+00  0.3609261E+00  0.1110195E+00  0.4507391E-01  0.0000000E+00
  0.8880000E+03 -0.7092656E-02 -0.2058427E+00  0.8562944E+00  0.3476555E+00  0.1437056E+00  0.5834447E-01  0.0000000E+00
  0.9000000E+03 -0.4442671E-01 -0.2431767E+00  0.8336694E+00  0.3384698E+00  0.1663306E+00  0.6753023E-01  0.0000000E+00
  0.9120000E+03 -0.7536343E-01 -0.2741134E+00  0.8163328E+00  0.3314311E+00  0.1836672E+00  0.7456887E-01  0.0000000E+00
  0.9240000E+03 -0.1023516E+00 -0.3011016E+00  0.8021754E+00  0.3256832E+00  0.1978246E+00  0.8031677E-01  0.0000000E+00
  0.9360000E+03 -0.1266697E+00 -0.3254197E+00  0.7901330E+00  0.3207940E+00  0.2098670E+00  0.8520601E-01  0.0000000E+00
  0.9480000E+03 -0.1490528E+00 -0.3478028E+00  0.7796051E+00  0.3165197E+00  0.2203949E+00  0.8948032E-01  0.0000000E+00
  0.9600000E+03 -0.1699568E+00 -0.3687068E+00  0.7702225E+00  0.3127103E+00  0.2297775E+00  0.9328967E-01  0.0000000E+00
  0.9720000E+03 -0.1896831E+00 -0.3884331E+00  0.7617417E+00  0.3092671E+00  0.2382583E+00  0.9673288E-01  0.0000000E+00
  0.9840000E+03 -0.2084411E+00 -0.4071911E+00  0.7539933E+00  0.3061213E+00  0.2460067E+00  0.9987870E-01  0.0000000E+00
  0.9960000E+03 -0.2263828E+00 -0.4251328E+00  0.7468543E+00  0.3032228E+00  0.2531457E+00  0.1027772E+00  0.0000000E+00
  0.1008000E+04 -0.2436224E+00 -0.4423724E+00  0.7402317E+00  0.3005341E+00  0.2597683E+00  0.1054659E+00  0.0000000E+00
  0.1020000E+04  0.2618800E-01 -0.1725620E+00  0.8781293E+00  0.3565205E+00  0.1218707E+00  0.4947952E-01  0.0000000E+00
  0.1032000E+04  0.1182529E+00 -0.8049706E-01  0.9461007E+00  0.3841169E+00  0.5389932E-01  0.2188313E-01  0.0000000E+00
  0.1044000E+04  0.4672585E-01 -0.1520241E+00  0.8923997E+00  0.3623143E+00  0.1076003E+00  0.4368570E-01  0.0000000E+00
  0.1056000E+04 -0.1942604E-02 -0.2006926E+00  0.8595688E+00  0.3489850E+00  0.1404312E+00  0.5701505E-01  0.0000000E+00
  0.1068000E+04 -0.3913808E-01 -0.2378881E+00  0.8367581E+00  0.3397238E+00  0.1632419E+00  0.6627621E-01  0.0000000E+00
  0.1080000E+04 -0.7007274E-01 -0.2688227E+00  0.8192114E+00  0.3325998E+00  0.1807886E+00  0.7340019E-01  0.0000000E+00
  0.1092000E+04 -0.9714059E-01 -0.2958906E+00  0.8048422E+00  0.3267659E+00  0.1951578E+00  0.7923407E-01  0.0000000E+00
  0.1104000E+04 -0.1215816E+00 -0.3203316E+00  0.7925991E+00  0.3217953E+00  0.2074009E+00  0.8420475E-01  0.0000000E+00
  0.1116000E+04 -0.1441070E+00 -0.3428570E+00  0.7818874E+00  0.3174463E+00  0.2181126E+00  0.8855373E-01  0.0000000E+00
  0.1128000E+04 -0.1651594E+00 -0.3639094E+00  0.7723389E+00  0.3135696E+00  0.2276611E+00  0.9243042E-01  0.0000000E+00
  0.1140000E+04 -0.1850323E+00 -0.3837823E+00  0.7637097E+00  0.3100661E+00  0.2362903E+00  0.9593385E-01  0.0000000E+00
  0.1152000E+04 -0.2039313E+00 -0.4026813E+00  0.7558290E+00  0.3068666E+00  0.2441710E+00  0.9913341E-01  0.0000000E+00
  0.1164000E+04 -0.2220065E+00 -0.4207565E+00  0.7485719E+00  0.3039202E+00  0.2514281E+00  0.1020798E+00  0.0000000E+00
  0.1176000E+04 -0.2393715E+00 -0.4381215E+00  0.7418438E+00  0.3011886E+00  0.2581562E+00  0.1048114E+00  0.0000000E+00
  0.1188000E+04  0.2773932E-01 -0.1710107E+00  0.8791861E+00  0.3569496E+00  0.1208139E+00  0.4905044E-01  0.0000000E+00
  0.1200000E+04  0.1187872E+00 -0.7996282E-01  0.9465160E+00  0.3842855E+00  0.5348397E-01  0.2171449E-01  0.0000000E+00
  0.1212000E+04  0.4724565E-01 -0.1515043E+00  0.8927687E+00  0.3624641E+00  0.1072313E+00  0.4353592E-01  0.0000000E+00
  0.1224000E+04 -0.1396174E-02 -0.2001462E+00  0.8599185E+00  0.3491269E+00  0.1400815E+00  0.5687309E-01  0.0000000E+00
  0.1236000E+04 -0.3858221E-01 -0.2373322E+00  0.8370849E+00  0.3398565E+00  0.1629151E+00  0.6614352E-01  0.0000000E+00
  0.1248000E+04 -0.6952077E-01 -0.2682708E+00  0.8195137E+00  0.3327226E+00  0.1804863E+00  0.7327745E-01  0.0000000E+00
  0.1260000E+04 -0.9660002E-01 -0.2953500E+00  0.8051206E+00  0.3268790E+00  0.1948794E+00  0.7912103E-01  0.0000000E+00
  0.1272000E+04 -0.1210561E+00 -0.3198061E+00  0.7928554E+00  0.3218993E+00  0.2071446E+00  0.8410070E-01  0.0000000E+00
  0.1284000E+04 -0.1435980E+00 -0.3423480E+00  0.7821237E+00  0.3175422E+00  0.2178763E+00  0.8845779E-01  0.0000000E+00
  0.1296000E+04 -0.1646669E+00 -0.3634169E+00  0.7725574E+00  0.3136583E+00  0.2274426E+00  0.9234170E-01  0.0000000E+00
  0.1308000E+04 -0.1845558E+00 -0.3833058E+00  0.7639124E+00  0.3101485E+00  0.2360876E+00  0.9585155E-01  0.0000000E+00
  0.1320000E+04 -0.2034700E+00 -0.4022200E+00  0.7560178E+00  0.3069432E+00  0.2439822E+00  0.9905678E-01  0.0000000E+00
  0.1332000E+04 -0.2215594E+00 -0.4203094E+00  0.7487482E+00  0.3039918E+00  0.2512518E+00  0.1020082E+00  0.0000000E+00
  0.1344000E+04 -0.2389376E+00 -0.4376876E+00  0.7420091E+00  0.3012557E+00  0.2579909E+00  0.1047443E+00  0.0000000E+00
  0.1356000E+04  0.2789762E-01 -0.1708524E+00  0.8792942E+00  0.3569934E+00  0.1207058E+00  0.4900657E-01  0.0000000E+00
  0.1368000E+04  0.1188417E+00 -0.7990835E-01  0.9465584E+00  0.3843027E+00  0.5344162E-01  0.2169730E-01  0.0000000E+00
  0.1380000E+04  0.4729857E-01 -0.1514514E+00  0.8928062E+00  0.3624793E+00  0.1071938E+00  0.4352067E-01  0.0000000E+00
  0.1392000E+04 -0.1340618E-02 -0.2000906E+00  0.8599541E+00  0.3491414E+00  0.1400459E+00  0.5685865E-01  0.0000000E+00
  0.1404000E+04 -0.3852575E-01 -0.2372757E+00  0.8371182E+00  0.3398700E+00  0.1628818E+00  0.6613003E-01  0.0000000E+00
  0.1416000E+04 -0.6946474E-01 -0.2682147E+00  0.8195444E+00  0.3327350E+00  0.1804556E+00  0.7326498E-01  0.0000000E+00
  0.1428000E+04 -0.9654519E-01 -0.2952952E+00  0.8051489E+00  0.3268904E+00  0.1948511E+00  0.7910956E-01  0.0000000E+00
  0.1440000E+04 -0.1210028E+00 -0.3197528E+00  0.7928814E+00  0.3219099E+00  0.2071186E+00  0.8409014E-01  0.0000000E+00
  0.1452000E+04 -0.1435464E+00 -0.3422964E+00  0.7821476E+00  0.3175519E+00  0.2178524E+00  0.8844806E-01  0.0000000E+00
  0.1464000E+04 -0.1646170E+00 -0.3633670E+00  0.7725795E+00  0.3136673E+00  0.2274205E+00  0.9233271E-01  0.0000000E+00
  0.1476000E+04 -0.1845076E+00 -0.3832576E+00  0.7639330E+00  0.3101568E+00  0.2360670E+00  0.9584321E-01  0.0000000E+00
  0.1488000E+04 -0.2034233E+00 -0.4021733E+00  0.7560369E+00  0.3069510E+00  0.2439631E+00  0.9904902E-01  0.0000000E+00
  0.1500000E+04 -0.2215141E+00 -0.4202641E+00  0.7487661E+00  0.3039990E+00  0.2512339E+00  0.1020010E+00  0.0000000E+00
  0.1512000E+04 -0.2388937E+00 -0.4376437E+00  0.7420258E+00  0.3012625E+00  0.2579742E+00  0.1047375E+00  0.0000000E+00
  0.1524000E+04  0.2791365E-01 -0.1708364E+00  0.8793051E+00  0.3569979E+00  0.1206949E+00  0.4900213E-01  0.0000000E+00
  0.1536000E+04  0.1188472E+00 -0.7990283E-01  0.9465627E+00  0.3843044E+00  0.5343733E-01  0.2169556E-01  0.0000000E+00
  0.1548000E+04  0.4730392E-01 -0.1514461E+00  0.8928100E+00  0.3624809E+00  0.1071900E+00  0.4351913E-01  0.0000000E+00
  0.1560000E+04 -0.1334994E-02 -0.2000850E+00  0.8599577E+00  0.3491428E+00  0.1400423E+00  0.5685718E-01  0.0000000E+00
  0.1572000E+04 -0.3852003E-01 -0.2372700E+00  0.8371215E+00  0.3398713E+00  0.1628785E+00  0.6612866E-01  0.0000000E+00
  0.1584000E+04 -0.6945907E-01 -0.2682091E+00  0.8195475E+00  0.3327363E+00  0.1804525E+00  0.7326372E-01  0.0000000E+00
  0.1596000E+04 -0.9653964E-01 -0.2952896E+00  0.8051517E+00  0.3268916E+00  0.1948483E+00  0.7910839E-01  0.0000000E+00
  0.1608000E+04 -0.1209974E+00 -0.3197474E+00  0.7928841E+00  0.3219109E+00  0.2071159E+00  0.8408907E-01  0.0000000E+00
  0.1620000E+04 -0.1435411E+00 -0.3422911E+00  0.7821501E+00  0.3175529E+00  0.2178499E+00  0.8844708E-01  0.0000000E+00
  0.1632000E+04 -0.1646119E+00 -0.3633619E+00  0.7725818E+00  0.3136682E+00  0.2274182E+00  0.9233180E-01  0.0000000E+00
  0.1644000E+04 -0.1845027E+00 -0.3832527E+00  0.7639351E+00  0.3101576E+00  0.2360649E+00  0.9584236E-01  0.0000000E+00