title = "dataset falk221"
variables = "time", "h_w", "p_w", "s_w", "theta_a", "s_a", "theta_g", "q_root"
zone t = "Flow variables, volume =    40, delx =  1.00E+00, dely =  1.00E+00, delz =  1.25E-03", f=point
  0.1000000E-05 -0.5560250E+00 -0.6047750E+00  0.6872776E+00  0.2790347E+00  0.3127224E+00  0.1269653E+00  0.0000000E+00
  0.2000000E-05 -0.5560250E+00 -0.6047750E+00  0.6872776E+00  0.2790347E+00  0.3127224E+00  0.1269653E+00  0.0000000E+00
  0.3558387E-05 -0.5560250E+00 -0.6047750E+00  0.6872776E+00  0.2790347E+00  0.3127224E+00  0.1269653E+00  0.0000000E+00
  0.6181544E-05 -0.5560250E+00 -0.6047750E+00  0.6872776E+00  0.2790347E+00  0.3127224E+00  0.1269653E+00  0.0000000E+00
  0.1026944E-04 -0.5560250E+00 -0.6047750E+00  0.6872776E+00  0.2790347E+00  0.3127224E+00  0.1269653E+00  0.0000000E+00
  0.1663996E-04 -0.5560250E+00 -0.6047750E+00  0.6872776E+00  0.2790347E+00  0.3127224E+00  0.1269653E+00  0.0000000E+00
  0.2656771E-04 -0.5560251E+00 -0.6047751E+00  0.6872776E+00  0.2790347E+00  0.3127224E+00  0.1269653E+00  0.0000000E+00
  0.4203898E-04 -0.5560251E+00 -0.6047751E+00  0.6872776E+00  0.2790347E+00  0.3127224E+00  0.1269653E+00  0.0000000E+00
  0.6614922E-04 -0.5560252E+00 -0.6047752E+00  0.6872776E+00  0.2790347E+00  0.3127224E+00  0.1269653E+00  0.0000000E+00
  0.1037223E-03 -0.5560253E+00 -0.6047753E+00  0.6872775E+00  0.2790347E+00  0.3127225E+00  0.1269653E+00  0.0000000E+00
  0.1622757E-03 -0.5560254E+00 -0.6047754E+00  0.6872775E+00  0.2790347E+00  0.3127225E+00  0.1269653E+00  0.0000000E+00
  0.2535247E-03 -0.5560256E+00 -0.6047756E+00  0.6872774E+00  0.2790346E+00  0.3127226E+00  0.1269654E+00  0.0000000E+00
  0.3865417E-03 -0.5560260E+00 -0.6047760E+00  0.6872773E+00  0.2790346E+00  0.3127227E+00  0.1269654E+00  0.0000000E+00
  0.5804457E-03 -0.5560264E+00 -0.6047764E+00  0.6872772E+00  0.2790345E+00  0.3127228E+00  0.1269655E+00  0.0000000E+00
  0.8631069E-03 -0.5560271E+00 -0.6047771E+00  0.6872770E+00  0.2790345E+00  0.3127230E+00  0.1269655E+00  0.0000000E+00
  0.1275153E-02 -0.5560282E+00 -0.6047782E+00  0.6872767E+00  0.2790343E+00  0.3127233E+00  0.1269657E+00  0.0000000E+00
  0.1875808E-02 -0.5560297E+00 -0.6047797E+00  0.6872763E+00  0.2790342E+00  0.3127237E+00  0.1269658E+00  0.0000000E+00
  0.2751406E-02 -0.5560319E+00 -0.6047819E+00  0.6872757E+00  0.2790339E+00  0.3127243E+00  0.1269661E+00  0.0000000E+00
  0.3954800E-02 -0.5560348E+00 -0.6047848E+00  0.6872748E+00  0.2790336E+00  0.3127252E+00  0.1269664E+00  0.0000000E+00
  0.5608706E-02 -0.5560390E+00 -0.6047890E+00  0.6872737E+00  0.2790331E+00  0.3127263E+00  0.1269669E+00  0.0000000E+00
  0.7881784E-02 -0.5560446E+00 -0.6047946E+00  0.6872721E+00  0.2790325E+00  0.3127279E+00  0.1269675E+00  0.0000000E+00
  0.1100583E-01 -0.5560524E+00 -0.6048024E+00  0.6872699E+00  0.2790316E+00  0.3127301E+00  0.1269684E+00  0.0000000E+00
  0.1507909E-01 -0.5560626E+00 -0.6048126E+00  0.6872670E+00  0.2790304E+00  0.3127330E+00  0.1269696E+00  0.0000000E+00
  0.2067724E-01 -0.5560765E+00 -0.6048265E+00  0.6872631E+00  0.2790288E+00  0.3127369E+00  0.1269712E+00  0.0000000E+00
  0.2797635E-01 -0.5560947E+00 -0.6048447E+00  0.6872580E+00  0.2790267E+00  0.3127420E+00  0.1269733E+00  0.0000000E+00
  0.3749322E-01 -0.5561184E+00 -0.6048684E+00  0.6872513E+00  0.2790240E+00  0.3127487E+00  0.1269760E+00  0.0000000E+00
  0.4990169E-01 -0.5561493E+00 -0.6048993E+00  0.6872426E+00  0.2790205E+00  0.3127574E+00  0.1269795E+00  0.0000000E+00
  0.6467073E-01 -0.5561861E+00 -0.6049361E+00  0.6872322E+00  0.2790163E+00  0.3127678E+00  0.1269837E+00  0.0000000E+00
  0.8224941E-01 -0.5562298E+00 -0.6049798E+00  0.6872199E+00  0.2790113E+00  0.3127801E+00  0.1269887E+00  0.0000000E+00
  0.1031722E+00 -0.5562819E+00 -0.6050319E+00  0.6872052E+00  0.2790053E+00  0.3127948E+00  0.1269947E+00  0.0000000E+00
  0.1250718E+00 -0.5563365E+00 -0.6050865E+00  0.6871898E+00  0.2789991E+00  0.3128102E+00  0.1270009E+00  0.0000000E+00
  0.1500969E+00 -0.5563988E+00 -0.6051488E+00  0.6871723E+00  0.2789919E+00  0.3128277E+00  0.1270081E+00  0.0000000E+00
  0.1734499E+00 -0.5564569E+00 -0.6052069E+00  0.6871559E+00  0.2789853E+00  0.3128441E+00  0.1270147E+00  0.0000000E+00
  0.2012455E+00 -0.5565261E+00 -0.6052761E+00  0.6871364E+00  0.2789774E+00  0.3128636E+00  0.1270226E+00  0.0000000E+00
  0.2263631E+00 -0.5565886E+00 -0.6053386E+00  0.6871188E+00  0.2789702E+00  0.3128812E+00  0.1270298E+00  0.0000000E+00
  0.2562591E+00 -0.5566630E+00 -0.6054130E+00  0.6870978E+00  0.2789617E+00  0.3129022E+00  0.1270383E+00  0.0000000E+00
  0.2844061E+00 -0.5567331E+00 -0.6054831E+00  0.6870781E+00  0.2789537E+00  0.3129219E+00  0.1270463E+00  0.0000000E+00
  0.3179079E+00 -0.5568165E+00 -0.6055665E+00  0.6870546E+00  0.2789442E+00  0.3129454E+00  0.1270558E+00  0.0000000E+00
  0.3487913E+00 -0.5568933E+00 -0.6056433E+00  0.6870330E+00  0.2789354E+00  0.3129670E+00  0.1270646E+00  0.0000000E+00
  0.3855500E+00 -0.5569848E+00 -0.6057348E+00  0.6870072E+00  0.2789249E+00  0.3129928E+00  0.1270751E+00  0.0000000E+00
  0.4202048E+00 -0.5570710E+00 -0.6058210E+00  0.6869830E+00  0.2789151E+00  0.3130170E+00  0.1270849E+00  0.0000000E+00
  0.4614522E+00 -0.5571736E+00 -0.6059236E+00  0.6869541E+00  0.2789034E+00  0.3130459E+00  0.1270966E+00  0.0000000E+00
  0.4993969E+00 -0.5572679E+00 -0.6060179E+00  0.6869276E+00  0.2788926E+00  0.3130724E+00  0.1271074E+00  0.0000000E+00
  0.5445602E+00 -0.5573802E+00 -0.6061302E+00  0.6868960E+00  0.2788798E+00  0.3131040E+00  0.1271202E+00  0.0000000E+00
  0.5873792E+00 -0.5574867E+00 -0.6062367E+00  0.6868660E+00  0.2788676E+00  0.3131340E+00  0.1271324E+00  0.0000000E+00
  0.6383440E+00 -0.5576134E+00 -0.6063634E+00  0.6868304E+00  0.2788531E+00  0.3131696E+00  0.1271469E+00  0.0000000E+00
  0.6851412E+00 -0.5577297E+00 -0.6064797E+00  0.6867977E+00  0.2788399E+00  0.3132023E+00  0.1271601E+00  0.0000000E+00
  0.7408411E+00 -0.5578681E+00 -0.6066181E+00  0.6867588E+00  0.2788241E+00  0.3132412E+00  0.1271759E+00  0.0000000E+00
  0.7941860E+00 -0.5580007E+00 -0.6067507E+00  0.6867215E+00  0.2788089E+00  0.3132785E+00  0.1271911E+00  0.0000000E+00
  0.8576791E+00 -0.5581584E+00 -0.6069084E+00  0.6866772E+00  0.2787909E+00  0.3133228E+00  0.1272091E+00  0.0000000E+00
  0.9145187E+00 -0.5582996E+00 -0.6070496E+00  0.6866375E+00  0.2787748E+00  0.3133625E+00  0.1272252E+00  0.0000000E+00
  0.9821713E+00 -0.5584676E+00 -0.6072176E+00  0.6865904E+00  0.2787557E+00  0.3134096E+00  0.1272443E+00  0.0000000E+00
  0.1048797E+01 -0.5586330E+00 -0.6073830E+00  0.6865439E+00  0.2787368E+00  0.3134561E+00  0.1272632E+00  0.0000000E+00
  0.1128098E+01 -0.5588298E+00 -0.6075798E+00  0.6864887E+00  0.2787144E+00  0.3135113E+00  0.1272856E+00  0.0000000E+00
  0.1196707E+01 -0.5590001E+00 -0.6077501E+00  0.6864409E+00  0.2786950E+00  0.3135591E+00  0.1273050E+00  0.0000000E+00
  0.1282000E+01 -0.5592117E+00 -0.6079617E+00  0.6863815E+00  0.2786709E+00  0.3136185E+00  0.1273291E+00  0.0000000E+00
  0.1360931E+01 -0.5594075E+00 -0.6081575E+00  0.6863267E+00  0.2786486E+00  0.3136733E+00  0.1273514E+00  0.0000000E+00
  0.1454877E+01 -0.5596404E+00 -0.6083904E+00  0.6862614E+00  0.2786221E+00  0.3137386E+00  0.1273779E+00  0.0000000E+00
  0.1542945E+01 -0.5598587E+00 -0.6086087E+00  0.6862002E+00  0.2785973E+00  0.3137998E+00  0.1274027E+00  0.0000000E+00
  0.1647767E+01 -0.5601184E+00 -0.6088684E+00  0.6861274E+00  0.2785677E+00  0.3138726E+00  0.1274323E+00  0.0000000E+00
  0.1743941E+01 -0.5603567E+00 -0.6091067E+00  0.6860607E+00  0.2785407E+00  0.3139393E+00  0.1274593E+00  0.0000000E+00
  0.1858412E+01 -0.5606401E+00 -0.6093901E+00  0.6859814E+00  0.2785084E+00  0.3140186E+00  0.1274916E+00  0.0000000E+00
  0.1966664E+01 -0.5609081E+00 -0.6096581E+00  0.6859064E+00  0.2784780E+00  0.3140936E+00  0.1275220E+00  0.0000000E+00
  0.2095510E+01 -0.5612269E+00 -0.6099769E+00  0.6858173E+00  0.2784418E+00  0.3141827E+00  0.1275582E+00  0.0000000E+00
  0.2212727E+01 -0.5615169E+00 -0.6102669E+00  0.6857363E+00  0.2784089E+00  0.3142637E+00  0.1275911E+00  0.0000000E+00
  0.2352243E+01 -0.5618618E+00 -0.6106118E+00  0.6856399E+00  0.2783698E+00  0.3143601E+00  0.1276302E+00  0.0000000E+00
  0.2486033E+01 -0.5621925E+00 -0.6109425E+00  0.6855476E+00  0.2783323E+00  0.3144524E+00  0.1276677E+00  0.0000000E+00
  0.2645276E+01 -0.5625858E+00 -0.6113358E+00  0.6854379E+00  0.2782878E+00  0.3145621E+00  0.1277122E+00  0.0000000E+00
  0.2786879E+01 -0.5629354E+00 -0.6116854E+00  0.6853404E+00  0.2782482E+00  0.3146596E+00  0.1277518E+00  0.0000000E+00
  0.2962915E+01 -0.5633698E+00 -0.6121198E+00  0.6852194E+00  0.2781991E+00  0.3147806E+00  0.1278009E+00  0.0000000E+00
  0.3119265E+01 -0.5637554E+00 -0.6125054E+00  0.6851120E+00  0.2781555E+00  0.3148880E+00  0.1278445E+00  0.0000000E+00
  0.3313634E+01 -0.5642345E+00 -0.6129845E+00  0.6849787E+00  0.2781013E+00  0.3150213E+00  0.1278987E+00  0.0000000E+00
  0.3486309E+01 -0.5646599E+00 -0.6134099E+00  0.6848604E+00  0.2780533E+00  0.3151396E+00  0.1279467E+00  0.0000000E+00
  0.3700973E+01 -0.5651883E+00 -0.6139383E+00  0.6847136E+00  0.2779937E+00  0.3152864E+00  0.1280063E+00  0.0000000E+00
  0.3892106E+01 -0.5656586E+00 -0.6144086E+00  0.6845830E+00  0.2779407E+00  0.3154170E+00  0.1280593E+00  0.0000000E+00
  0.4129715E+01 -0.5662427E+00 -0.6149927E+00  0.6844210E+00  0.2778749E+00  0.3155790E+00  0.1281251E+00  0.0000000E+00
  0.4340986E+01 -0.5667618E+00 -0.6155118E+00  0.6842771E+00  0.2778165E+00  0.3157229E+00  0.1281835E+00  0.0000000E+00
  0.4603630E+01 -0.5674065E+00 -0.6161565E+00  0.6840986E+00  0.2777441E+00  0.3159014E+00  0.1282559E+00  0.0000000E+00
  0.4838353E+01 -0.5679822E+00 -0.6167322E+00  0.6839394E+00  0.2776794E+00  0.3160606E+00  0.1283206E+00  0.0000000E+00
  0.5130153E+01 -0.5686972E+00 -0.6174472E+00  0.6837418E+00  0.2775992E+00  0.3162582E+00  0.1284008E+00  0.0000000E+00
  0.5389104E+01 -0.5693312E+00 -0.6180812E+00  0.6835669E+00  0.2775281E+00  0.3164331E+00  0.1284719E+00  0.0000000E+00
  0.5711023E+01 -0.5701185E+00 -0.6188685E+00  0.6833498E+00  0.2774400E+00  0.3166502E+00  0.1285600E+00  0.0000000E+00
  0.6001074E+01 -0.5708271E+00 -0.6195771E+00  0.6831547E+00  0.2773608E+00  0.3168453E+00  0.1286392E+00  0.0000000E+00
  0.6361655E+01 -0.5717066E+00 -0.6204566E+00  0.6829129E+00  0.2772626E+00  0.3170871E+00  0.1287374E+00  0.0000000E+00
  0.6678745E+01 -0.5724791E+00 -0.6212291E+00  0.6827007E+00  0.2771765E+00  0.3172993E+00  0.1288235E+00  0.0000000E+00
  0.7092181E+01 -0.5734838E+00 -0.6222338E+00  0.6824252E+00  0.2770646E+00  0.3175748E+00  0.1289354E+00  0.0000000E+00
  0.7426029E+01 -0.5742935E+00 -0.6230435E+00  0.6822035E+00  0.2769746E+00  0.3177965E+00  0.1290254E+00  0.0000000E+00
  0.7912692E+01 -0.5754682E+00 -0.6242182E+00  0.6818823E+00  0.2768442E+00  0.3181177E+00  0.1291558E+00  0.0000000E+00
  0.8256939E+01 -0.5762960E+00 -0.6250460E+00  0.6816564E+00  0.2767525E+00  0.3183436E+00  0.1292475E+00  0.0000000E+00
  0.8793411E+01 -0.5775738E+00 -0.6263238E+00  0.6813082E+00  0.2766111E+00  0.3186918E+00  0.1293889E+00  0.0000000E+00
  0.9215810E+01 -0.5785703E+00 -0.6273203E+00  0.6810372E+00  0.2765011E+00  0.3189628E+00  0.1294989E+00  0.0000000E+00
  0.9831557E+01 -0.5799902E+00 -0.6287402E+00  0.6806518E+00  0.2763446E+00  0.3193482E+00  0.1296554E+00  0.0000000E+00
  0.1028309E+02 -0.5810088E+00 -0.6297588E+00  0.6803758E+00  0.2762326E+00  0.3196242E+00  0.1297674E+00  0.0000000E+00
  0.1098676E+02 -0.5825093E+00 -0.6312593E+00  0.6799701E+00  0.2760679E+00  0.3200299E+00  0.1299321E+00  0.0000000E+00
  0.1149640E+02 -0.5835367E+00 -0.6322867E+00  0.6796929E+00  0.2759553E+00  0.3203071E+00  0.1300447E+00  0.0000000E+00
  0.1229062E+02 -0.5849159E+00 -0.6336659E+00  0.6793214E+00  0.2758045E+00  0.3206786E+00  0.1301955E+00  0.0000000E+00
  0.1288354E+02 -0.5857829E+00 -0.6345329E+00  0.6790884E+00  0.2757099E+00  0.3209116E+00  0.1302901E+00  0.0000000E+00
  0.1380754E+02 -0.5865346E+00 -0.6352846E+00  0.6788866E+00  0.2756279E+00  0.3211134E+00  0.1303721E+00  0.0000000E+00
  0.1445315E+02 -0.5866808E+00 -0.6354308E+00  0.6788473E+00  0.2756120E+00  0.3211527E+00  0.1303880E+00  0.0000000E+00
  0.1545926E+02 -0.5855713E+00 -0.6343213E+00  0.6791452E+00  0.2757330E+00  0.3208548E+00  0.1302670E+00  0.0000000E+00
  0.1629646E+02 -0.5834201E+00 -0.6321701E+00  0.6797243E+00  0.2759681E+00  0.3202757E+00  0.1300319E+00  0.0000000E+00
  0.1744708E+02 -0.5772344E+00 -0.6259844E+00  0.6814006E+00  0.2766487E+00  0.3185994E+00  0.1293513E+00  0.0000000E+00
  0.1843659E+02 -0.5688557E+00 -0.6176057E+00  0.6836981E+00  0.2775814E+00  0.3163019E+00  0.1284186E+00  0.0000000E+00
  0.1979653E+02 -0.5500159E+00 -0.5987659E+00  0.6889802E+00  0.2797260E+00  0.3110198E+00  0.1262740E+00  0.0000000E+00
  0.2104404E+02 -0.5257604E+00 -0.5745104E+00  0.6960288E+00  0.2825877E+00  0.3039712E+00  0.1234123E+00  0.0000000E+00
  0.2259490E+02 -0.4850137E+00 -0.5337637E+00  0.7085489E+00  0.2876709E+00  0.2914511E+00  0.1183291E+00  0.0000000E+00
  0.2400000E+02 -0.4415275E+00 -0.4902775E+00  0.7229515E+00  0.2935183E+00  0.2770485E+00  0.1124817E+00  0.0000000E+00
  0.2593112E+02 -0.3810244E+00 -0.4297744E+00  0.7450489E+00  0.3024899E+00  0.2549511E+00  0.1035101E+00  0.0000000E+00
  0.2822961E+02 -0.3260541E+00 -0.3748041E+00  0.7675635E+00  0.3116308E+00  0.2324365E+00  0.9436923E-01  0.0000000E+00
  0.3096537E+02 -0.2872582E+00 -0.3360082E+00  0.7850886E+00  0.3187460E+00  0.2149114E+00  0.8725404E-01  0.0000000E+00
  0.3472530E+02 -0.2645651E+00 -0.3133151E+00  0.7960458E+00  0.3231946E+00  0.2039542E+00  0.8280539E-01  0.0000000E+00
  0.4058474E+02 -0.2608389E+00 -0.3095889E+00  0.7978982E+00  0.3239467E+00  0.2021018E+00  0.8205333E-01  0.0000000E+00
  0.4971600E+02 -0.2795974E+00 -0.3283474E+00  0.7887265E+00  0.3202230E+00  0.2112735E+00  0.8577705E-01  0.0000000E+00
  0.6171600E+02 -0.3149386E+00 -0.3636886E+00  0.7724368E+00  0.3136093E+00  0.2275632E+00  0.9239066E-01  0.0000000E+00
  0.7371600E+02 -0.3523824E+00 -0.4011324E+00  0.7564634E+00  0.3071242E+00  0.2435366E+00  0.9887585E-01  0.0000000E+00
  0.8571600E+02 -0.3892875E+00 -0.4380375E+00  0.7418758E+00  0.3012016E+00  0.2581242E+00  0.1047984E+00  0.0000000E+00
  0.9600000E+02 -0.4200996E+00 -0.4688496E+00  0.7304857E+00  0.2965772E+00  0.2695143E+00  0.1094228E+00  0.0000000E+00
  0.1080000E+03 -0.4543483E+00 -0.5030983E+00  0.7185857E+00  0.2917458E+00  0.2814143E+00  0.1142542E+00  0.0000000E+00
  0.1200000E+03 -0.4870819E+00 -0.5358319E+00  0.7078917E+00  0.2874040E+00  0.2921083E+00  0.1185960E+00  0.0000000E+00
  0.1320000E+03 -0.5183970E+00 -0.5671470E+00  0.6982265E+00  0.2834799E+00  0.3017735E+00  0.1225201E+00  0.0000000E+00
  0.1440000E+03 -0.5484118E+00 -0.5971618E+00  0.6894375E+00  0.2799116E+00  0.3105625E+00  0.1260884E+00  0.0000000E+00
  0.1560000E+03 -0.5772435E+00 -0.6259935E+00  0.6813981E+00  0.2766476E+00  0.3186019E+00  0.1293524E+00  0.0000000E+00
  0.1680000E+03 -0.6049995E+00 -0.6537495E+00  0.6740040E+00  0.2736456E+00  0.3259960E+00  0.1323544E+00  0.0000000E+00
  0.1800000E+03 -0.5923807E+00 -0.6411307E+00  0.6773252E+00  0.2749940E+00  0.3226748E+00  0.1310060E+00  0.0000000E+00
  0.1920000E+03 -0.4239517E+00 -0.4727017E+00  0.7291087E+00  0.2960181E+00  0.2708913E+00  0.1099819E+00  0.0000000E+00
  0.2040000E+03 -0.3368641E+00 -0.3856141E+00  0.7629323E+00  0.3097505E+00  0.2370677E+00  0.9624947E-01  0.0000000E+00
  0.2160000E+03 -0.3242116E+00 -0.3729616E+00  0.7683634E+00  0.3119555E+00  0.2316366E+00  0.9404446E-01  0.0000000E+00
  0.2280000E+03 -0.3411261E+00 -0.3898761E+00  0.7611349E+00  0.3090208E+00  0.2388651E+00  0.9697922E-01  0.0000000E+00
  0.2400000E+03 -0.3688825E+00 -0.4176325E+00  0.7498073E+00  0.3044218E+00  0.2501927E+00  0.1015782E+00  0.0000000E+00
  0.2520000E+03 -0.4003461E+00 -0.4490961E+00  0.7377092E+00  0.2995099E+00  0.2622908E+00  0.1064901E+00  0.0000000E+00
  0.2640000E+03 -0.4326696E+00 -0.4814196E+00  0.7260291E+00  0.2947678E+00  0.2739709E+00  0.1112322E+00  0.0000000E+00
  0.2760000E+03 -0.4646768E+00 -0.5134268E+00  0.7151428E+00  0.2903480E+00  0.2848572E+00  0.1156520E+00  0.0000000E+00
  0.2880000E+03 -0.4958869E+00 -0.5446369E+00  0.7051204E+00  0.2862789E+00  0.2948796E+00  0.1197211E+00  0.0000000E+00
  0.3000000E+03 -0.5261236E+00 -0.5748736E+00  0.6959211E+00  0.2825440E+00  0.3040789E+00  0.1234560E+00  0.0000000E+00
  0.3120000E+03 -0.5553470E+00 -0.6040970E+00  0.6874689E+00  0.2791124E+00  0.3125311E+00  0.1268876E+00  0.0000000E+00
  0.3240000E+03 -0.5835789E+00 -0.6323289E+00  0.6796815E+00  0.2759507E+00  0.3203185E+00  0.1300493E+00  0.0000000E+00
  0.3360000E+03 -0.6108672E+00 -0.6596172E+00  0.6724819E+00  0.2730277E+00  0.3275181E+00  0.1329723E+00  0.0000000E+00
  0.3480000E+03 -0.6372694E+00 -0.6860194E+00  0.6658016E+00  0.2703154E+00  0.3341984E+00  0.1356846E+00  0.0000000E+00
  0.3600000E+03 -0.6628445E+00 -0.7115945E+00  0.6595808E+00  0.2677898E+00  0.3404192E+00  0.1382102E+00  0.0000000E+00
  0.3720000E+03 -0.6876490E+00 -0.7363990E+00  0.6537681E+00  0.2654299E+00  0.3462319E+00  0.1405701E+00  0.0000000E+00
  0.3840000E+03 -0.7117359E+00 -0.7604859E+00  0.6483195E+00  0.2632177E+00  0.3516805E+00  0.1427823E+00  0.0000000E+00
  0.3960000E+03 -0.7351537E+00 -0.7839037E+00  0.6431968E+00  0.2611379E+00  0.3568032E+00  0.1448621E+00  0.0000000E+00
  0.4080000E+03 -0.7579464E+00 -0.8066964E+00  0.6383675E+00  0.2591772E+00  0.3616325E+00  0.1468228E+00  0.0000000E+00
  0.4200000E+03 -0.7801541E+00 -0.8289041E+00  0.6338031E+00  0.2573241E+00  0.3661969E+00  0.1486759E+00  0.0000000E+00
  0.4320000E+03 -0.8018129E+00 -0.8505629E+00  0.6294791E+00  0.2555685E+00  0.3705209E+00  0.1504315E+00  0.0000000E+00
  0.4440000E+03 -0.8229555E+00 -0.8717055E+00  0.6253738E+00  0.2539018E+00  0.3746262E+00  0.1520982E+00  0.0000000E+00
  0.4560000E+03 -0.8436118E+00 -0.8923618E+00  0.6214685E+00  0.2523162E+00  0.3785315E+00  0.1536838E+00  0.0000000E+00
  0.4680000E+03 -0.8638086E+00 -0.9125586E+00  0.6177466E+00  0.2508051E+00  0.3822534E+00  0.1551949E+00  0.0000000E+00
  0.4800000E+03 -0.8835706E+00 -0.9323206E+00  0.6141933E+00  0.2493625E+00  0.3858067E+00  0.1566375E+00  0.0000000E+00
  0.4920000E+03 -0.9029201E+00 -0.9516701E+00  0.6107956E+00  0.2479830E+00  0.3892044E+00  0.1580170E+00  0.0000000E+00
  0.5040000E+03 -0.9218776E+00 -0.9706276E+00  0.6075418E+00  0.2466620E+00  0.3924582E+00  0.1593380E+00  0.0000000E+00
  0.5160000E+03 -0.9404620E+00 -0.9892120E+00  0.6044215E+00  0.2453951E+00  0.3955785E+00  0.1606049E+00  0.0000000E+00
  0.5280000E+03 -0.9586906E+00 -0.1007441E+01  0.6014254E+00  0.2441787E+00  0.3985746E+00  0.1618213E+00  0.0000000E+00
  0.5400000E+03 -0.9765792E+00 -0.1025329E+01  0.5985451E+00  0.2430093E+00  0.4014549E+00  0.1629907E+00  0.0000000E+00
  0.5520000E+03 -0.9941426E+00 -0.1042893E+01  0.5957728E+00  0.2418838E+00  0.4042272E+00  0.1641162E+00  0.0000000E+00
  0.5640000E+03 -0.1011394E+01 -0.1060144E+01  0.5931017E+00  0.2407993E+00  0.4068983E+00  0.1652007E+00  0.0000000E+00
  0.5760000E+03 -0.1028347E+01 -0.1077097E+01  0.5905256E+00  0.2397534E+00  0.4094744E+00  0.1662466E+00  0.0000000E+00
  0.5880000E+03 -0.1045013E+01 -0.1093763E+01  0.5880385E+00  0.2387436E+00  0.4119615E+00  0.1672564E+00  0.0000000E+00
  0.6000000E+03 -0.1061403E+01 -0.1110153E+01  0.5856354E+00  0.2377680E+00  0.4143646E+00  0.1682320E+00  0.0000000E+00
  0.6120000E+03 -0.1077526E+01 -0.1126276E+01  0.5833114E+00  0.2368244E+00  0.4166886E+00  0.1691756E+00  0.0000000E+00
  0.6240000E+03 -0.1093393E+01 -0.1142143E+01  0.5810621E+00  0.2359112E+00  0.4189379E+00  0.1700888E+00  0.0000000E+00
  0.6360000E+03 -0.1109013E+01 -0.1157763E+01  0.5788834E+00  0.2350267E+00  0.4211166E+00  0.1709733E+00  0.0000000E+00
  0.6480000E+03 -0.1124394E+01 -0.1173144E+01  0.5767716E+00  0.2341693E+00  0.4232284E+00  0.1718307E+00  0.0000000E+00
  0.6600000E+03 -0.1139544E+01 -0.1188294E+01  0.5747231E+00  0.2333376E+00  0.4252769E+00  0.1726624E+00  0.0000000E+00
  0.6720000E+03 -0.1154470E+01 -0.1203220E+01  0.5727349E+00  0.2325304E+00  0.4272651E+00  0.1734696E+00  0.0000000E+00
  0.6840000E+03 -0.1161393E+01 -0.1210143E+01  0.5718226E+00  0.2321600E+00  0.4281774E+00  0.1738400E+00  0.0000000E+00
  0.6960000E+03 -0.1068330E+01 -0.1117080E+01  0.5846321E+00  0.2373606E+00  0.4153679E+00  0.1686394E+00  0.0000000E+00
  0.7080000E+03 -0.8726133E+00 -0.9213633E+00  0.6161529E+00  0.2501581E+00  0.3838471E+00  0.1558419E+00  0.0000000E+00
  0.7200000E+03 -0.7150251E+00 -0.7637751E+00  0.6475898E+00  0.2629215E+00  0.3524102E+00  0.1430785E+00  0.0000000E+00
  0.7320000E+03 -0.6301442E+00 -0.6788942E+00  0.6675778E+00  0.2710366E+00  0.3324222E+00  0.1349634E+00  0.0000000E+00
  0.7440000E+03 -0.5925798E+00 -0.6413298E+00  0.6772723E+00  0.2749726E+00  0.3227277E+00  0.1310274E+00  0.0000000E+00
  0.7560000E+03 -0.5812428E+00 -0.6299928E+00  0.6803125E+00  0.2762069E+00  0.3196875E+00  0.1297931E+00  0.0000000E+00
  0.7680000E+03 -0.5844678E+00 -0.6332178E+00  0.6794420E+00  0.2758535E+00  0.3205580E+00  0.1301465E+00  0.0000000E+00
  0.7800000E+03 -0.5959717E+00 -0.6447217E+00  0.6763734E+00  0.2746076E+00  0.3236266E+00  0.1313924E+00  0.0000000E+00
  0.7920000E+03 -0.6122493E+00 -0.6609993E+00  0.6721254E+00  0.2728829E+00  0.3278746E+00  0.1331171E+00  0.0000000E+00
  0.8040000E+03 -0.6312746E+00 -0.6800246E+00  0.6672948E+00  0.2709217E+00  0.3327052E+00  0.1350783E+00  0.0000000E+00
  0.8160000E+03 -0.6518428E+00 -0.7005928E+00  0.6622276E+00  0.2688644E+00  0.3377724E+00  0.1371356E+00  0.0000000E+00
  0.8280000E+03 -0.6732222E+00 -0.7219722E+00  0.6571232E+00  0.2667920E+00  0.3428768E+00  0.1392080E+00  0.0000000E+00
  0.8400000E+03 -0.6949606E+00 -0.7437106E+00  0.6520943E+00  0.2647503E+00  0.3479057E+00  0.1412497E+00  0.0000000E+00
  0.8520000E+03 -0.6837767E+00 -0.7325267E+00  0.6546618E+00  0.2657927E+00  0.3453382E+00  0.1402073E+00  0.0000000E+00
  0.8640000E+03 -0.5100273E+00 -0.5587773E+00  0.7007584E+00  0.2845079E+00  0.2992416E+00  0.1214921E+00  0.0000000E+00
  0.8760000E+03 -0.3943511E+00 -0.4431011E+00  0.7399567E+00  0.3004224E+00  0.2600433E+00  0.1055776E+00  0.0000000E+00
  0.8880000E+03 -0.3626946E+00 -0.4114446E+00  0.7522774E+00  0.3054246E+00  0.2477226E+00  0.1005754E+00  0.0000000E+00
  0.9000000E+03 -0.3688840E+00 -0.4176340E+00  0.7498067E+00  0.3044215E+00  0.2501933E+00  0.1015785E+00  0.0000000E+00
  0.9120000E+03 -0.3903458E+00 -0.4390958E+00  0.7414731E+00  0.3010381E+00  0.2585269E+00  0.1049619E+00  0.0000000E+00
  0.9240000E+03 -0.4178863E+00 -0.4666363E+00  0.7312815E+00  0.2969003E+00  0.2687185E+00  0.1090997E+00  0.0000000E+00
  0.9360000E+03 -0.4476211E+00 -0.4963711E+00  0.7208635E+00  0.2926706E+00  0.2791365E+00  0.1133294E+00  0.0000000E+00
  0.9480000E+03 -0.4778305E+00 -0.5265805E+00  0.7108505E+00  0.2886053E+00  0.2891495E+00  0.1173947E+00  0.0000000E+00
  0.9600000E+03 -0.5077351E+00 -0.5564851E+00  0.7014582E+00  0.2847920E+00  0.2985418E+00  0.1212080E+00  0.0000000E+00
  0.9720000E+03 -0.5369861E+00 -0.5857361E+00  0.6927309E+00  0.2812487E+00  0.3072691E+00  0.1247513E+00  0.0000000E+00
  0.9840000E+03 -0.5654402E+00 -0.6141902E+00  0.6846436E+00  0.2779653E+00  0.3153564E+00  0.1280347E+00  0.0000000E+00
  0.9960000E+03 -0.5930539E+00 -0.6418039E+00  0.6771464E+00  0.2749214E+00  0.3228536E+00  0.1310786E+00  0.0000000E+00
  0.1008000E+04 -0.6198332E+00 -0.6685832E+00  0.6701828E+00  0.2720942E+00  0.3298172E+00  0.1339058E+00  0.0000000E+00
  0.1020000E+04 -0.6075542E+00 -0.6563042E+00  0.6733396E+00  0.2733759E+00  0.3266604E+00  0.1326241E+00  0.0000000E+00
  0.1032000E+04 -0.4379116E+00 -0.4866616E+00  0.7242016E+00  0.2940259E+00  0.2757984E+00  0.1119741E+00  0.0000000E+00
  0.1044000E+04 -0.3460179E+00 -0.3947679E+00  0.7590914E+00  0.3081911E+00  0.2409086E+00  0.9780888E-01  0.0000000E+00
  0.1056000E+04 -0.3303118E+00 -0.3790618E+00  0.7657269E+00  0.3108851E+00  0.2342731E+00  0.9511488E-01  0.0000000E+00
  0.1068000E+04 -0.3455277E+00 -0.3942777E+00  0.7592953E+00  0.3082739E+00  0.2407047E+00  0.9772611E-01  0.0000000E+00
  0.1080000E+04 -0.3722941E+00 -0.4210441E+00  0.7484586E+00  0.3038742E+00  0.2515414E+00  0.1021258E+00  0.0000000E+00
  0.1092000E+04 -0.4031428E+00 -0.4518928E+00  0.7366697E+00  0.2990879E+00  0.2633303E+00  0.1069121E+00  0.0000000E+00
  0.1104000E+04 -0.4350609E+00 -0.4838109E+00  0.7251932E+00  0.2944284E+00  0.2748068E+00  0.1115716E+00  0.0000000E+00
  0.1116000E+04 -0.4667863E+00 -0.5155363E+00  0.7144475E+00  0.2900657E+00  0.2855525E+00  0.1159343E+00  0.0000000E+00
  0.1128000E+04 -0.4977915E+00 -0.5465415E+00  0.7045266E+00  0.2860378E+00  0.2954734E+00  0.1199622E+00  0.0000000E+00
  0.1140000E+04 -0.5278729E+00 -0.5766229E+00  0.6954034E+00  0.2823338E+00  0.3045966E+00  0.1236662E+00  0.0000000E+00
  0.1152000E+04 -0.5569749E+00 -0.6057249E+00  0.6870100E+00  0.2789261E+00  0.3129900E+00  0.1270739E+00  0.0000000E+00
  0.1164000E+04 -0.5851089E+00 -0.6338589E+00  0.6792695E+00  0.2757834E+00  0.3207305E+00  0.1302166E+00  0.0000000E+00
  0.1176000E+04 -0.6123164E+00 -0.6610664E+00  0.6721082E+00  0.2728759E+00  0.3278918E+00  0.1331241E+00  0.0000000E+00
  0.1188000E+04 -0.5997846E+00 -0.6485346E+00  0.6753686E+00  0.2741996E+00  0.3246314E+00  0.1318004E+00  0.0000000E+00
  0.1200000E+04 -0.4306549E+00 -0.4794049E+00  0.7267363E+00  0.2950549E+00  0.2732637E+00  0.1109451E+00  0.0000000E+00
  0.1212000E+04 -0.3412325E+00 -0.3899825E+00  0.7610903E+00  0.3090026E+00  0.2389097E+00  0.9699735E-01  0.0000000E+00
  0.1224000E+04 -0.3271162E+00 -0.3758662E+00  0.7671038E+00  0.3114442E+00  0.2328962E+00  0.9455585E-01  0.0000000E+00
  0.1236000E+04 -0.3432198E+00 -0.3919698E+00  0.7602578E+00  0.3086647E+00  0.2397422E+00  0.9733534E-01  0.0000000E+00
  0.1248000E+04 -0.3705046E+00 -0.4192546E+00  0.7491649E+00  0.3041609E+00  0.2508351E+00  0.1018391E+00  0.0000000E+00
  0.1260000E+04 -0.4016756E+00 -0.4504256E+00  0.7372143E+00  0.2993090E+00  0.2627857E+00  0.1066910E+00  0.0000000E+00
  0.1272000E+04 -0.4338064E+00 -0.4825564E+00  0.7256313E+00  0.2946063E+00  0.2743687E+00  0.1113937E+00  0.0000000E+00
  0.1284000E+04 -0.4656796E+00 -0.5144296E+00  0.7148119E+00  0.2902136E+00  0.2851881E+00  0.1157864E+00  0.0000000E+00
  0.1296000E+04 -0.4967924E+00 -0.5455424E+00  0.7048378E+00  0.2861642E+00  0.2951622E+00  0.1198358E+00  0.0000000E+00
  0.1308000E+04 -0.5269553E+00 -0.5757053E+00  0.6956748E+00  0.2824440E+00  0.3043252E+00  0.1235560E+00  0.0000000E+00
  0.1320000E+04 -0.5561210E+00 -0.6048710E+00  0.6872506E+00  0.2790237E+00  0.3127494E+00  0.1269763E+00  0.0000000E+00
  0.1332000E+04 -0.5843063E+00 -0.6330563E+00  0.6794855E+00  0.2758711E+00  0.3205145E+00  0.1301289E+00  0.0000000E+00
  0.1344000E+04 -0.6115563E+00 -0.6603063E+00  0.6723041E+00  0.2729555E+00  0.3276959E+00  0.1330445E+00  0.0000000E+00
  0.1356000E+04 -0.5989974E+00 -0.6477474E+00  0.6755755E+00  0.2742837E+00  0.3244245E+00  0.1317163E+00  0.0000000E+00
  0.1368000E+04 -0.4299209E+00 -0.4786709E+00  0.7269946E+00  0.2951598E+00  0.2730054E+00  0.1108402E+00  0.0000000E+00
  0.1380000E+04 -0.3407493E+00 -0.3894993E+00  0.7612932E+00  0.3090850E+00  0.2387068E+00  0.9691497E-01  0.0000000E+00
  0.1392000E+04 -0.3267936E+00 -0.3755436E+00  0.7672433E+00  0.3115008E+00  0.2327567E+00  0.9449922E-01  0.0000000E+00
  0.1404000E+04 -0.3429869E+00 -0.3917369E+00  0.7603552E+00  0.3087042E+00  0.2396448E+00  0.9729579E-01  0.0000000E+00
  0.1416000E+04 -0.3703239E+00 -0.4190739E+00  0.7492363E+00  0.3041900E+00  0.2507637E+00  0.1018100E+00  0.0000000E+00
  0.1428000E+04 -0.4015274E+00 -0.4502774E+00  0.7372694E+00  0.2993314E+00  0.2627306E+00  0.1066686E+00  0.0000000E+00
  0.1440000E+04 -0.4336796E+00 -0.4824296E+00  0.7256756E+00  0.2946243E+00  0.2743244E+00  0.1113757E+00  0.0000000E+00
  0.1452000E+04 -0.4655678E+00 -0.5143178E+00  0.7148488E+00  0.2902286E+00  0.2851512E+00  0.1157714E+00  0.0000000E+00
  0.1464000E+04 -0.4966913E+00 -0.5454413E+00  0.7048693E+00  0.2861769E+00  0.2951307E+00  0.1198231E+00  0.0000000E+00
  0.1476000E+04 -0.5268625E+00 -0.5756125E+00  0.6957023E+00  0.2824551E+00  0.3042977E+00  0.1235449E+00  0.0000000E+00
  0.1488000E+04 -0.5560346E+00 -0.6047846E+00  0.6872749E+00  0.2790336E+00  0.3127251E+00  0.1269664E+00  0.0000000E+00
  0.1500000E+04 -0.5842251E+00 -0.6329751E+00  0.6795074E+00  0.2758800E+00  0.3204926E+00  0.1301200E+00  0.0000000E+00
  0.1512000E+04 -0.6114793E+00 -0.6602293E+00  0.6723239E+00  0.2729635E+00  0.3276761E+00  0.1330365E+00  0.0000000E+00
  0.1524000E+04 -0.5989177E+00 -0.6476677E+00  0.6755965E+00  0.2742922E+00  0.3244035E+00  0.1317078E+00  0.0000000E+00
  0.1536000E+04 -0.4298466E+00 -0.4785966E+00  0.7270208E+00  0.2951704E+00  0.2729792E+00  0.1108296E+00  0.0000000E+00
  0.1548000E+04 -0.3407005E+00 -0.3894505E+00  0.7613137E+00  0.3090934E+00  0.2386863E+00  0.9690663E-01  0.0000000E+00
  0.1560000E+04 -0.3267610E+00 -0.3755110E+00  0.7672574E+00  0.3115065E+00  0.2327426E+00  0.9449348E-01  0.0000000E+00
  0.1572000E+04 -0.3429633E+00 -0.3917133E+00  0.7603650E+00  0.3087082E+00  0.2396350E+00  0.9729179E-01  0.0000000E+00
  0.1584000E+04 -0.3703056E+00 -0.4190556E+00  0.7492436E+00  0.3041929E+00  0.2507564E+00  0.1018071E+00  0.0000000E+00
  0.1596000E+04 -0.4015124E+00 -0.4502624E+00  0.7372750E+00  0.2993336E+00  0.2627250E+00  0.1066664E+00  0.0000000E+00
  0.1608000E+04 -0.4336668E+00 -0.4824168E+00  0.7256801E+00  0.2946261E+00  0.2743199E+00  0.1113739E+00  0.0000000E+00
  0.1620000E+04 -0.4655564E+00 -0.5143064E+00  0.7148525E+00  0.2902301E+00  0.2851475E+00  0.1157699E+00  0.0000000E+00
  0.1632000E+04 -0.4966811E+00 -0.5454311E+00  0.7048725E+00  0.2861782E+00  0.2951275E+00  0.1198218E+00  0.0000000E+00
  0.1644000E+04 -0.5268531E+00 -0.5756031E+00  0.6957050E+00  0.2824562E+00  0.3042950E+00  0.1235438E+00  0.0000000E+00