TITLE = "Profiles along polylines"
VARIABLES = DIST PRESSURE1 SATURATION1 
ZONE T="TIME=0.000000000000e+000"
1.665000000000e+000 0.000000e+000 0.469475000000e+000   
1.710000000000e+000 0.000000e+000 0.937895000000e+000 
2.000000000000e+000 0.000000e+000 1.000000000000e+000 
TITLE = "Profiles along polylines"
VARIABLES = DIST PRESSURE1 SATURATION1 
ZONE T="TIME=1.000000000000e+000"
0.215000000000e+000 0.000000e+000 4.545259079631e-001   
0.241000000000e+000 0.000000e+000 7.368005000000e-001   
0.502000000000e+000 0.000000e+000 8.289471000000e-001 
0.800000000000e+000 0.000000e+000 1.000000000000e+000
1.150000000000e+000 0.000000e+000 1.000000000000e+000   
1.400000000000e+000 0.000000e+000 1.000000000000e+000 
2.000000000000e+000 0.000000e+000 1.000000000000e+000 
