 TITLE = "Time curves in points"
 VARIABLES = "TIME "  "TCE" 
 ZONE T="POINT=POINT4"
0.000000000000e+000 1.206500000000e+001 
4.320000000000e+004 1.206500000000e+001 
8.640000000000e+004 1.206499999999e+001 
1.296000000000e+005 1.206499999251e+001 
1.728000000000e+005 1.206499999866e+001 
2.160000000000e+005 1.206499999973e+001 
2.592000000000e+005 1.206499999993e+001 
3.024000000000e+005 1.206499999997e+001 
3.456000000000e+005 1.206499999998e+001 
3.888000000000e+005 1.206499999998e+001 
4.320000000000e+005 1.206499999998e+001 
4.752000000000e+005 1.206499999998e+001 
5.184000000000e+005 1.206499999998e+001 
5.616000000000e+005 1.206499999998e+001 
6.048000000000e+005 1.206499999998e+001 
6.480000000000e+005 1.206499999998e+001 
6.912000000000e+005 1.206499999998e+001 
7.344000000000e+005 1.206499999998e+001 
7.776000000000e+005 1.206499999998e+001 
8.208000000000e+005 1.206499999998e+001 
8.640000000000e+005 1.206499999998e+001 
9.072000000000e+005 1.206499999998e+001 
9.504000000000e+005 1.206499999998e+001 
9.936000000000e+005 1.206499999998e+001 
1.036800000000e+006 1.206499999998e+001 
1.080000000000e+006 1.206499999998e+001 
1.123200000000e+006 1.206499999998e+001 
1.166400000000e+006 1.206499999998e+001 
1.209600000000e+006 1.206499999998e+001 
1.252800000000e+006 1.206499999998e+001 
1.296000000000e+006 1.206499999998e+001 
1.339200000000e+006 1.206499999998e+001 
1.382400000000e+006 1.206500000000e+001 
1.425600000000e+006 1.206500000000e+001 
1.468800000000e+006 1.206499999998e+001 
1.512000000000e+006 1.206499999998e+001 
1.555200000000e+006 1.206499999998e+001 
1.598400000000e+006 1.206499999998e+001 
1.641600000000e+006 1.206499999998e+001 
1.684800000000e+006 1.206499999998e+001 
1.728000000000e+006 1.206499999998e+001 
1.771200000000e+006 1.206499999998e+001 
1.814400000000e+006 1.206499999998e+001 
1.857600000000e+006 1.206499999998e+001 
1.900800000000e+006 1.206499999998e+001 
1.944000000000e+006 1.206499999998e+001 
1.987200000000e+006 1.206499999998e+001 
2.030400000000e+006 1.206499999998e+001 
2.073600000000e+006 1.206499999998e+001 
2.116800000000e+006 1.206499999998e+001 
2.160000000000e+006 1.206499999998e+001 
2.203200000000e+006 1.206499999998e+001 
2.246400000000e+006 1.206499999998e+001 
2.289600000000e+006 1.206499999998e+001 
2.332800000000e+006 1.206499999998e+001 
2.376000000000e+006 1.206499999998e+001 
2.419200000000e+006 1.206499999998e+001 
2.462400000000e+006 1.206499999998e+001 
2.505600000000e+006 1.206499999998e+001 
2.548800000000e+006 1.206499999998e+001 
2.592000000000e+006 1.206499999998e+001 
2.635200000000e+006 1.206499999998e+001 
2.678400000000e+006 1.206499999998e+001 
2.721600000000e+006 1.206499999998e+001 
2.764800000000e+006 1.206499999998e+001 
2.808000000000e+006 1.206499999998e+001 
2.851200000000e+006 1.206499999998e+001 
2.894400000000e+006 1.206499999998e+001 
2.937600000000e+006 1.206499999998e+001 
2.980800000000e+006 1.206499999998e+001 
3.024000000000e+006 1.206499999998e+001 
3.067200000000e+006 1.206499999998e+001 
3.110400000000e+006 1.206499999998e+001 
3.153600000000e+006 1.206499999998e+001 
3.196800000000e+006 1.206499999998e+001 
3.240000000000e+006 1.206499999998e+001 
3.283200000000e+006 1.206499999998e+001 
3.326400000000e+006 1.206499999998e+001 
3.369600000000e+006 1.206499999998e+001 
3.412800000000e+006 1.206499999998e+001 
3.456000000000e+006 1.206499999998e+001 
3.499200000000e+006 1.206500000000e+001 
3.542400000000e+006 1.206500000000e+001 
3.585600000000e+006 1.206500000000e+001 
3.628800000000e+006 1.206500000000e+001 
3.672000000000e+006 1.206499999998e+001 
3.715200000000e+006 1.206499999998e+001 
3.758400000000e+006 1.206499999998e+001 
3.801600000000e+006 1.206499999998e+001 
3.844800000000e+006 1.206499999998e+001 
3.888000000000e+006 1.206499999998e+001 
3.931200000000e+006 1.206499999998e+001 
3.974400000000e+006 1.206499999998e+001 
4.017600000000e+006 1.206499999997e+001 
4.060800000000e+006 1.206500000000e+001 
4.104000000000e+006 1.206500000000e+001 
4.147200000000e+006 1.206499999997e+001 
4.190400000000e+006 1.206499999997e+001 
4.233600000000e+006 1.206499999997e+001 
4.276800000000e+006 1.206499999997e+001 
4.320000000000e+006 1.206499999997e+001 
4.363200000000e+006 1.206499999997e+001 
4.406400000000e+006 1.206499999997e+001 
4.449600000000e+006 1.206499999997e+001 
4.492800000000e+006 1.206499999997e+001 
4.536000000000e+006 1.206499999997e+001 
4.579200000000e+006 1.206499999997e+001 
4.622400000000e+006 1.206499999997e+001 
4.665600000000e+006 1.206499999997e+001 
4.708800000000e+006 1.206499999997e+001 
4.752000000000e+006 1.206499999997e+001 
4.795200000000e+006 1.206499999997e+001 
4.838400000000e+006 1.206500000000e+001 
4.881600000000e+006 1.206500000000e+001 
4.924800000000e+006 1.206500000000e+001 
4.968000000000e+006 1.206500000000e+001 
5.011200000000e+006 1.206500000000e+001 
5.054400000000e+006 1.206500000000e+001 
5.097600000000e+006 1.206500000000e+001 
5.140800000000e+006 1.206500000000e+001 
5.184000000000e+006 1.206500000000e+001 
5.227200000000e+006 1.206500000000e+001 
5.270400000000e+006 1.206499999996e+001 
5.313600000000e+006 1.206499999996e+001 
5.356800000000e+006 1.206499999996e+001 
5.400000000000e+006 1.206499999996e+001 
5.443200000000e+006 1.206499999996e+001 
5.486400000000e+006 1.206499999996e+001 
5.529600000000e+006 1.206499999996e+001 
5.572800000000e+006 1.206499999996e+001 
5.616000000000e+006 1.206499999996e+001 
5.659200000000e+006 1.206499999996e+001 
5.702400000000e+006 1.206499999996e+001 
5.745600000000e+006 1.206499999995e+001 
5.788800000000e+006 1.206499999995e+001 
5.832000000000e+006 1.206499999995e+001 
5.875200000000e+006 1.206499999995e+001 
5.918400000000e+006 1.206499999995e+001 
5.961600000000e+006 1.206499999995e+001 
6.004800000000e+006 1.206499999995e+001 
6.048000000000e+006 1.206499999995e+001 
6.091200000000e+006 1.206499999995e+001 
6.134400000000e+006 1.206499999995e+001 
6.177600000000e+006 1.206499999995e+001 
6.220800000000e+006 1.206499999995e+001 
6.264000000000e+006 1.206499999995e+001 
6.307200000000e+006 1.206499999995e+001 
6.350400000000e+006 1.206499999994e+001 
6.393600000000e+006 1.206499999994e+001 
6.436800000000e+006 1.206499999994e+001 
6.480000000000e+006 1.206499999994e+001 
6.523200000000e+006 1.206499999994e+001 
6.566400000000e+006 1.206499999994e+001 
6.609600000000e+006 1.206499999994e+001 
6.652800000000e+006 1.206499999994e+001 
6.696000000000e+006 1.206499999994e+001 
6.739200000000e+006 1.206499999994e+001 
6.782400000000e+006 1.206499999994e+001 
6.825600000000e+006 1.206499999994e+001 
6.868800000000e+006 1.206499999994e+001 
6.912000000000e+006 1.206500000000e+001 
6.955200000000e+006 1.206500000000e+001 
6.998400000000e+006 1.206500000000e+001 
7.041600000000e+006 1.206500000000e+001 
7.084800000000e+006 1.206499999993e+001 
7.128000000000e+006 1.206499999993e+001 
7.171200000000e+006 1.206499999993e+001 
7.214400000000e+006 1.206499999993e+001 
7.257600000000e+006 1.206499999993e+001 
7.300800000000e+006 1.206499999991e+001 
7.344000000000e+006 1.206499999993e+001 
7.387200000000e+006 1.206499999993e+001 
7.430400000000e+006 1.206499999992e+001 
7.473600000000e+006 1.206499999991e+001 
7.516800000000e+006 1.206499999992e+001 
7.560000000000e+006 1.206499999992e+001 
7.603200000000e+006 1.206499999992e+001 
7.646400000000e+006 1.206499999992e+001 
7.689600000000e+006 1.206499999992e+001 
7.732800000000e+006 1.206499999992e+001 
7.776000000000e+006 1.206499999991e+001 
7.819200000000e+006 1.206499999992e+001 
7.862400000000e+006 1.206499999992e+001 
7.905600000000e+006 1.206499999992e+001 
7.948800000000e+006 1.206499999992e+001 
7.992000000000e+006 1.206499999991e+001 
8.035200000000e+006 1.206499999991e+001 
8.078400000000e+006 1.206499999990e+001 
8.121600000000e+006 1.206499999990e+001 
8.164800000000e+006 1.206499999990e+001 
8.208000000000e+006 1.206499999990e+001 
8.251200000000e+006 1.206499999990e+001 
8.294400000000e+006 1.206499999990e+001 
8.337600000000e+006 1.206499999990e+001 
8.380800000000e+006 1.206499999989e+001 
8.424000000000e+006 1.206499999989e+001 
8.467200000000e+006 1.206499999990e+001 
8.510400000000e+006 1.206499999990e+001 
8.553600000000e+006 1.206499999990e+001 
8.596800000000e+006 1.206499999989e+001 
8.640000000000e+006 1.206500000000e+001 
8.683200000000e+006 1.206500000000e+001 
8.726400000000e+006 1.206499999988e+001 
8.769600000000e+006 1.206499999988e+001 
8.812800000000e+006 1.206499999988e+001 
8.856000000000e+006 1.206499999988e+001 
8.899200000000e+006 1.206499999988e+001 
8.942400000000e+006 1.206499999988e+001 
8.985600000000e+006 1.206499999987e+001 
9.028800000000e+006 1.206499999988e+001 
9.072000000000e+006 1.206499999988e+001 
9.115200000000e+006 1.206499999988e+001 
9.158400000000e+006 1.206499999987e+001 
9.201600000000e+006 1.206500000000e+001 
9.244800000000e+006 1.206500000000e+001 
9.288000000000e+006 1.206500000000e+001 
9.331200000000e+006 1.206500000000e+001 
9.374400000000e+006 1.206499999986e+001 
9.417600000000e+006 1.206499999986e+001 
9.460800000000e+006 1.206499999986e+001 
9.504000000000e+006 1.206499999986e+001 
9.547200000000e+006 1.206499999986e+001 
9.590400000000e+006 1.206499999984e+001 
9.633600000000e+006 1.206499999986e+001 
9.676800000000e+006 1.206499999986e+001 
9.720000000000e+006 1.206499999985e+001 
9.763200000000e+006 1.206499999984e+001 
9.806400000000e+006 1.206499999983e+001 
9.849600000000e+006 1.206499999983e+001 
9.892800000000e+006 1.206499999983e+001 
9.936000000000e+006 1.206499999983e+001 
9.979200000000e+006 1.206499999983e+001 
1.002240000000e+007 1.206499999983e+001 
1.006560000000e+007 1.206499999983e+001 
1.010880000000e+007 1.206499999983e+001 
1.015200000000e+007 1.206499999983e+001 
1.019520000000e+007 1.206499999983e+001 
1.023840000000e+007 1.206499999983e+001 
1.028160000000e+007 1.206499999982e+001 
1.032480000000e+007 1.206499999981e+001 
1.036800000000e+007 1.206499999980e+001 
1.041120000000e+007 1.206499999980e+001 
1.045440000000e+007 1.206499999980e+001 
1.049760000000e+007 1.206499999980e+001 
1.054080000000e+007 1.206499999980e+001 
1.058400000000e+007 1.206499999980e+001 
1.062720000000e+007 1.206499999980e+001 
1.067040000000e+007 1.206499999980e+001 
1.071360000000e+007 1.206499999980e+001 
1.075680000000e+007 1.206499999980e+001 
1.080000000000e+007 1.206499999980e+001 
1.084320000000e+007 1.206499999979e+001 
1.088640000000e+007 1.206499999977e+001 
1.092960000000e+007 1.206499999976e+001 
1.097280000000e+007 1.206499999976e+001 
1.101600000000e+007 1.206499999976e+001 
1.105920000000e+007 1.206499999976e+001 
1.110240000000e+007 1.206499999976e+001 
1.114560000000e+007 1.206499999976e+001 
1.118880000000e+007 1.206499999976e+001 
1.123200000000e+007 1.206499999976e+001 
1.127520000000e+007 1.206499999976e+001 
1.131840000000e+007 1.206499999976e+001 
1.136160000000e+007 1.206499999976e+001 
1.140480000000e+007 1.206499999976e+001 
1.144800000000e+007 1.206499999964e+001 
1.149120000000e+007 1.206499999972e+001 
1.153440000000e+007 1.206499999972e+001 
1.157760000000e+007 1.206499999971e+001 
1.162080000000e+007 1.206499999971e+001 
1.166400000000e+007 1.206499999971e+001 
1.170720000000e+007 1.206499999971e+001 
1.175040000000e+007 1.206499999971e+001 
1.179360000000e+007 1.206499999971e+001 
1.183680000000e+007 1.206499999971e+001 
1.188000000000e+007 1.206499999971e+001 
1.192320000000e+007 1.206499999971e+001 
1.196640000000e+007 1.206499999971e+001 
1.200960000000e+007 1.206499999969e+001 
1.205280000000e+007 1.206500000000e+001 
1.209600000000e+007 1.206500000000e+001 
1.213920000000e+007 1.206500000000e+001 
1.218240000000e+007 1.206500000000e+001 
1.222560000000e+007 1.206499999966e+001 
1.226880000000e+007 1.206499999966e+001 
1.231200000000e+007 1.206499999966e+001 
1.235520000000e+007 1.206499999966e+001 
1.239840000000e+007 1.206499999966e+001 
1.244160000000e+007 1.206499999966e+001 
1.248480000000e+007 1.206499999966e+001 
1.252800000000e+007 1.206499999966e+001 
1.257120000000e+007 1.206499999963e+001 
1.261440000000e+007 1.206499999961e+001 
1.265760000000e+007 1.206499999961e+001 
1.270080000000e+007 1.206499999959e+001 
1.274400000000e+007 1.206499999959e+001 
1.278720000000e+007 1.206499999959e+001 
1.283040000000e+007 1.206499999959e+001 
1.287360000000e+007 1.206499999959e+001 
1.291680000000e+007 1.206499999959e+001 
1.296000000000e+007 1.206499999959e+001 
1.300320000000e+007 1.206499999959e+001 
1.304640000000e+007 1.206499999959e+001 
1.308960000000e+007 1.206499999959e+001 
1.313280000000e+007 1.206499999958e+001 
1.317600000000e+007 1.206499999954e+001 
1.321920000000e+007 1.206500000000e+001 
1.326240000000e+007 1.206500000000e+001 
1.330560000000e+007 1.206500000000e+001 
1.334880000000e+007 1.206500000000e+001 
1.339200000000e+007 1.206500000000e+001 
1.343520000000e+007 1.206500000000e+001 
1.347840000000e+007 1.206499999951e+001 
1.352160000000e+007 1.206499999951e+001 
1.356480000000e+007 1.206499999946e+001 
1.360800000000e+007 1.206499999951e+001 
1.365120000000e+007 1.206499999951e+001 
1.369440000000e+007 1.206499999950e+001 
1.373760000000e+007 1.206499999946e+001 
1.378080000000e+007 1.206500000000e+001 
1.382400000000e+007 1.206500000000e+001 
1.386720000000e+007 1.206499999942e+001 
1.391040000000e+007 1.206499999942e+001 
1.395360000000e+007 1.206499999942e+001 
1.399680000000e+007 1.206499999942e+001 
1.404000000000e+007 1.206499999942e+001 
1.408320000000e+007 1.206499999942e+001 
1.412640000000e+007 1.206499999942e+001 
1.416960000000e+007 1.206499999920e+001 
1.421280000000e+007 1.206499999941e+001 
1.425600000000e+007 1.206499999941e+001 
1.429920000000e+007 1.206499999935e+001 
1.434240000000e+007 1.206500000000e+001 
1.438560000000e+007 1.206500000000e+001 
1.442880000000e+007 1.206500000000e+001 
1.447200000000e+007 1.206500000000e+001 
1.451520000000e+007 1.206500000000e+001 
1.455840000000e+007 1.206499999930e+001 
1.460160000000e+007 1.206499999930e+001 
1.464480000000e+007 1.206499999930e+001 
1.468800000000e+007 1.206499999930e+001 
1.473120000000e+007 1.206499999931e+001 
1.477440000000e+007 1.206499999931e+001 
1.481760000000e+007 1.206499999931e+001 
1.486080000000e+007 1.206499999926e+001 
1.490400000000e+007 1.206499999921e+001 
1.494720000000e+007 1.206499999918e+001 
1.499040000000e+007 1.206499999917e+001 
1.503360000000e+007 1.206499999917e+001 
1.507680000000e+007 1.206499999917e+001 
1.512000000000e+007 1.206499999917e+001 
1.516320000000e+007 1.206499999917e+001 
1.520640000000e+007 1.206499999917e+001 
1.524960000000e+007 1.206499999917e+001 
1.529280000000e+007 1.206499999902e+001 
1.533600000000e+007 1.206499999917e+001 
1.537920000000e+007 1.206499999917e+001 
1.542240000000e+007 1.206499999912e+001 
1.546560000000e+007 1.206499999906e+001 
1.550880000000e+007 1.206499999902e+001 
1.555200000000e+007 1.206499999902e+001 
1.559520000000e+007 1.206499999894e+001 
1.563840000000e+007 1.206499999901e+001 
1.568160000000e+007 1.206499999901e+001 
1.572480000000e+007 1.206499999901e+001 
1.576800000000e+007 1.206499999901e+001 
1.581120000000e+007 1.206499999901e+001 
1.585440000000e+007 1.206499999901e+001 
1.589760000000e+007 1.206499999901e+001 
1.594080000000e+007 1.206499999901e+001 
1.598400000000e+007 1.206499999898e+001 
1.602720000000e+007 1.206499999889e+001 
1.607040000000e+007 1.206500000000e+001 
1.611360000000e+007 1.206500000000e+001 
1.615680000000e+007 1.206500000000e+001 
1.620000000000e+007 1.206500000000e+001 
1.624320000000e+007 1.206500000000e+001 
1.628640000000e+007 1.206499999881e+001 
1.632960000000e+007 1.206499999881e+001 
1.637280000000e+007 1.206499999881e+001 
1.641600000000e+007 1.206499999882e+001 
1.645920000000e+007 1.206499999882e+001 
1.650240000000e+007 1.206499999882e+001 
1.654560000000e+007 1.206499999882e+001 
1.658880000000e+007 1.206499999869e+001 
1.663200000000e+007 1.206500000000e+001 
1.667520000000e+007 1.206500000000e+001 
1.671840000000e+007 1.206500000000e+001 
1.676160000000e+007 1.206500000000e+001 
1.680480000000e+007 1.206500000000e+001 
1.684800000000e+007 1.206499999858e+001 
1.689120000000e+007 1.206499999858e+001 
1.693440000000e+007 1.206499999858e+001 
1.697760000000e+007 1.206499999858e+001 
1.702080000000e+007 1.206499999858e+001 
1.706400000000e+007 1.206499999859e+001 
1.710720000000e+007 1.206499999859e+001 
1.715040000000e+007 1.206499999845e+001 
1.719360000000e+007 1.206499999836e+001 
1.723680000000e+007 1.206499999839e+001 
1.728000000000e+007 1.206499999832e+001 
1.732320000000e+007 1.206499999831e+001 
1.736640000000e+007 1.206499999831e+001 
1.740960000000e+007 1.206499999831e+001 
1.745280000000e+007 1.206499999831e+001 
1.749600000000e+007 1.206499999831e+001 
1.753920000000e+007 1.206499999831e+001 
1.758240000000e+007 1.206499999831e+001 
1.762560000000e+007 1.206499999831e+001 
1.766880000000e+007 1.206499999831e+001 
1.771200000000e+007 1.206499999817e+001 
1.775520000000e+007 1.206499999783e+001 
1.779840000000e+007 1.206499999800e+001 
1.784160000000e+007 1.206499999798e+001 
1.788480000000e+007 1.206499999798e+001 
1.792800000000e+007 1.206499999798e+001 
1.797120000000e+007 1.206499999798e+001 
1.801440000000e+007 1.206499999798e+001 
1.805760000000e+007 1.206499999798e+001 
1.810080000000e+007 1.206499999798e+001 
1.814400000000e+007 1.206499999766e+001 
1.818720000000e+007 1.206499999798e+001 
1.823040000000e+007 1.206499999798e+001 
1.827360000000e+007 1.206499999792e+001 
1.831680000000e+007 1.206499999773e+001 
1.836000000000e+007 1.206500000000e+001 
1.840320000000e+007 1.206500000000e+001 
1.844640000000e+007 1.206500000000e+001 
1.848960000000e+007 1.206500000000e+001 
1.853280000000e+007 1.206500000000e+001 
1.857600000000e+007 1.206499999758e+001 
1.861920000000e+007 1.206499999758e+001 
1.866240000000e+007 1.206499999758e+001 
1.870560000000e+007 1.206499999759e+001 
1.874880000000e+007 1.206499999759e+001 
1.879200000000e+007 1.206499999759e+001 
1.883520000000e+007 1.206499999754e+001 
1.887840000000e+007 1.206499999731e+001 
1.892160000000e+007 1.206500000000e+001 
1.896480000000e+007 1.206500000000e+001 
1.900800000000e+007 1.206499999712e+001 
1.905120000000e+007 1.206499999712e+001 
1.909440000000e+007 1.206499999712e+001 
1.913760000000e+007 1.206499999712e+001 
1.918080000000e+007 1.206499999712e+001 
1.922400000000e+007 1.206499999712e+001 
1.926720000000e+007 1.206499999712e+001 
1.931040000000e+007 1.206500000000e+001 
1.935360000000e+007 1.206499999711e+001 
1.939680000000e+007 1.206499999709e+001 
1.944000000000e+007 1.206499999680e+001 
1.948320000000e+007 1.206499999639e+001 
1.952640000000e+007 1.206499999658e+001 
1.956960000000e+007 1.206499999656e+001 
1.961280000000e+007 1.206499999655e+001 
1.965600000000e+007 1.206499999655e+001 
1.969920000000e+007 1.206499999641e+001 
1.974240000000e+007 1.206499999655e+001 
1.978560000000e+007 1.206499999655e+001 
1.982880000000e+007 1.206499999656e+001 
1.987200000000e+007 1.206499999656e+001 
1.991520000000e+007 1.206499999656e+001 
1.995840000000e+007 1.206499999656e+001 
2.000160000000e+007 1.206499999638e+001 
2.004480000000e+007 1.206499999610e+001 
2.008800000000e+007 1.206499999596e+001 
2.013120000000e+007 1.206499999590e+001 
2.017440000000e+007 1.206499999590e+001 
2.021760000000e+007 1.206499999577e+001 
2.026080000000e+007 1.206499999587e+001 
2.030400000000e+007 1.206499999588e+001 
2.034720000000e+007 1.206499999588e+001 
2.039040000000e+007 1.206499999588e+001 
2.043360000000e+007 1.206499999589e+001 
2.047680000000e+007 1.206499999438e+001 
2.052000000000e+007 1.206499999586e+001 
2.056320000000e+007 1.206499999565e+001 
2.060640000000e+007 1.206499999533e+001 
2.064960000000e+007 1.206499999517e+001 
2.069280000000e+007 1.206499999511e+001 
2.073600000000e+007 1.206499999503e+001 
2.077920000000e+007 1.206499999508e+001 
2.082240000000e+007 1.206499999508e+001 
2.086560000000e+007 1.206499999508e+001 
2.090880000000e+007 1.206499999509e+001 
2.095200000000e+007 1.206499999509e+001 
2.099520000000e+007 1.206499999509e+001 
2.103840000000e+007 1.206499999510e+001 
2.108160000000e+007 1.206499999510e+001 
2.112480000000e+007 1.206499999488e+001 
2.116800000000e+007 1.206499999445e+001 
2.121120000000e+007 1.206499999424e+001 
2.125440000000e+007 1.206499999416e+001 
2.129760000000e+007 1.206499999413e+001 
2.134080000000e+007 1.206499999412e+001 
2.138400000000e+007 1.206499999412e+001 
2.142720000000e+007 1.206499999412e+001 
2.147040000000e+007 1.206499999412e+001 
2.151360000000e+007 1.206499999413e+001 
2.155680000000e+007 1.206499999413e+001 
2.160000000000e+007 1.206499999413e+001 
2.164320000000e+007 1.206499999414e+001 
2.168640000000e+007 1.206499999414e+001 
2.172960000000e+007 1.206499999339e+001 
2.177280000000e+007 1.206499999318e+001 
2.181600000000e+007 1.206499999302e+001 
2.185920000000e+007 1.206499999299e+001 
2.190240000000e+007 1.206499999297e+001 
2.194560000000e+007 1.206499999297e+001 
2.198880000000e+007 1.206499999297e+001 
2.203200000000e+007 1.206499999297e+001 
2.207520000000e+007 1.206499999298e+001 
2.211840000000e+007 1.206499999298e+001 
2.216160000000e+007 1.206499999201e+001 
2.220480000000e+007 1.206499999297e+001 
2.224800000000e+007 1.206499999299e+001 
2.229120000000e+007 1.206499999235e+001 
2.233440000000e+007 1.206499999191e+001 
2.237760000000e+007 1.206499999171e+001 
2.242080000000e+007 1.206499999164e+001 
2.246400000000e+007 1.206499999162e+001 
2.250720000000e+007 1.206499999060e+001 
2.255040000000e+007 1.206499999159e+001 
2.259360000000e+007 1.206499999162e+001 
2.263680000000e+007 1.206499999162e+001 
2.268000000000e+007 1.206499999163e+001 
2.272320000000e+007 1.206499999164e+001 
2.276640000000e+007 1.206499999164e+001 
2.280960000000e+007 1.206499999165e+001 
2.285280000000e+007 1.206499999108e+001 
2.289600000000e+007 1.206499999044e+001 
2.293920000000e+007 1.206499999014e+001 
2.298240000000e+007 1.206499999002e+001 
2.302560000000e+007 1.206499998998e+001 
2.306880000000e+007 1.206499998957e+001 
2.311200000000e+007 1.206499998996e+001 
2.315520000000e+007 1.206499998997e+001 
2.319840000000e+007 1.206499998998e+001 
2.324160000000e+007 1.206499998999e+001 
2.328480000000e+007 1.206500000000e+001 
2.332800000000e+007 1.206499999000e+001 
2.337120000000e+007 1.206499999001e+001 
2.341440000000e+007 1.206499998970e+001 
2.345760000000e+007 1.206500000000e+001 
2.350080000000e+007 1.206500000000e+001 
2.354400000000e+007 1.206500000000e+001 
2.358720000000e+007 1.206500000000e+001 
2.363040000000e+007 1.206500000000e+001 
2.367360000000e+007 1.206500000000e+001 
2.371680000000e+007 1.206500000000e+001 
2.376000000000e+007 1.206499999999e+001 
2.380320000000e+007 1.206499998803e+001 
2.384640000000e+007 1.206499998804e+001 
2.388960000000e+007 1.206499998804e+001 
2.393280000000e+007 1.206499998805e+001 
2.397600000000e+007 1.206499998783e+001 
2.401920000000e+007 1.206499998667e+001 
2.406240000000e+007 1.206500000000e+001 
2.410560000000e+007 1.206500000000e+001 
2.414880000000e+007 1.206499998573e+001 
2.419200000000e+007 1.206499998415e+001 
2.423520000000e+007 1.206499998568e+001 
2.427840000000e+007 1.206499998570e+001 
2.432160000000e+007 1.206499998571e+001 
2.436480000000e+007 1.206499998572e+001 
2.440800000000e+007 1.206499998573e+001 
2.445120000000e+007 1.206499998574e+001 
2.449440000000e+007 1.206499998575e+001 
2.453760000000e+007 1.206499998562e+001 
2.458080000000e+007 1.206499998414e+001 
2.462400000000e+007 1.206499998337e+001 
2.466720000000e+007 1.206499998305e+001 
2.471040000000e+007 1.206499998292e+001 
2.475360000000e+007 1.206499998290e+001 
2.479680000000e+007 1.206499998289e+001 
2.484000000000e+007 1.206499998289e+001 
2.488320000000e+007 1.206499998290e+001 
2.492640000000e+007 1.206499998291e+001 
2.496960000000e+007 1.206499998319e+001 
2.501280000000e+007 1.206499998293e+001 
2.505600000000e+007 1.206499998294e+001 
2.509920000000e+007 1.206499998296e+001 
2.514240000000e+007 1.206499998185e+001 
2.518560000000e+007 1.206499998054e+001 
2.522880000000e+007 1.206499997990e+001 
2.527200000000e+007 1.206499997965e+001 
2.531520000000e+007 1.206499997957e+001 
2.535840000000e+007 1.206499997955e+001 
2.540160000000e+007 1.206499997955e+001 
2.544480000000e+007 1.206499997956e+001 
2.548800000000e+007 1.206499997957e+001 
2.553120000000e+007 1.206499997958e+001 
2.557440000000e+007 1.206499997959e+001 
2.561760000000e+007 1.206499997960e+001 
2.566080000000e+007 1.206499997962e+001 
2.570400000000e+007 1.206499997852e+001 
2.574720000000e+007 1.206499997687e+001 
2.579040000000e+007 1.206499997606e+001 
2.583360000000e+007 1.206499997574e+001 
2.587680000000e+007 1.206499997562e+001 
2.592000000000e+007 1.206499997560e+001 
2.596320000000e+007 1.206499997560e+001 
2.600640000000e+007 1.206499997561e+001 
2.604960000000e+007 1.206499997562e+001 
2.609280000000e+007 1.206499997564e+001 
2.613600000000e+007 1.206499997565e+001 
2.617920000000e+007 1.206499997566e+001 
2.622240000000e+007 1.206499997568e+001 
2.626560000000e+007 1.206499997462e+001 
2.630880000000e+007 1.206499997250e+001 
2.635200000000e+007 1.206499997131e+001 
2.639520000000e+007 1.206499997104e+001 
2.643840000000e+007 1.206499997084e+001 
2.648160000000e+007 1.206499996888e+001 
2.652480000000e+007 1.206499997076e+001 
2.656800000000e+007 1.206499997080e+001 
2.661120000000e+007 1.206499997082e+001 
2.665440000000e+007 1.206499997081e+001 
2.669760000000e+007 1.206499997086e+001 
2.674080000000e+007 1.206499997088e+001 
2.678400000000e+007 1.206499997089e+001 
2.682720000000e+007 1.206499997091e+001 
2.687040000000e+007 1.206499996735e+001 
2.691360000000e+007 1.206499996386e+001 
2.695680000000e+007 1.206499996545e+001 
2.700000000000e+007 1.206499996517e+001 
2.704320000000e+007 1.206499996510e+001 
2.708640000000e+007 1.206499996508e+001 
2.712960000000e+007 1.206499996509e+001 
2.717280000000e+007 1.206499996510e+001 
2.721600000000e+007 1.206499996512e+001 
2.725920000000e+007 1.206499996514e+001 
2.730240000000e+007 1.206499996516e+001 
2.734560000000e+007 1.206499996518e+001 
2.738880000000e+007 1.206499996520e+001 
2.743200000000e+007 1.206499996229e+001 
2.747520000000e+007 1.206499995988e+001 
2.751840000000e+007 1.206499995888e+001 
2.756160000000e+007 1.206499995850e+001 
2.760480000000e+007 1.206499995834e+001 
2.764800000000e+007 1.206499995833e+001 
2.769120000000e+007 1.206499995833e+001 
2.773440000000e+007 1.206499995835e+001 
2.777760000000e+007 1.206499995837e+001 
2.782080000000e+007 1.206499995840e+001 
2.786400000000e+007 1.206499995842e+001 
2.790720000000e+007 1.206499995844e+001 
2.795040000000e+007 1.206499995847e+001 
2.799360000000e+007 1.206499995582e+001 
2.803680000000e+007 1.206499995261e+001 
2.808000000000e+007 1.206499995100e+001 
2.812320000000e+007 1.206499995039e+001 
2.816640000000e+007 1.206499995019e+001 
2.820960000000e+007 1.206499995013e+001 
2.825280000000e+007 1.206499995012e+001 
2.829600000000e+007 1.206499995014e+001 
2.833920000000e+007 1.206499995016e+001 
2.838240000000e+007 1.206499995019e+001 
2.842560000000e+007 1.206499995022e+001 
2.846880000000e+007 1.206499995025e+001 
2.851200000000e+007 1.206499995028e+001 
2.855520000000e+007 1.206499994913e+001 
2.859840000000e+007 1.206499994433e+001 
2.864160000000e+007 1.206500000000e+001 
2.868480000000e+007 1.206500000000e+001 
2.872800000000e+007 1.206499994046e+001 
2.877120000000e+007 1.206499994034e+001 
2.881440000000e+007 1.206499993314e+001 
2.885760000000e+007 1.206499994015e+001 
2.890080000000e+007 1.206499994034e+001 
2.894400000000e+007 1.206499994039e+001 
2.898720000000e+007 1.206499994042e+001 
2.903040000000e+007 1.206499994045e+001 
2.907360000000e+007 1.206499994049e+001 
2.911680000000e+007 1.206499994037e+001 
2.916000000000e+007 1.206499993417e+001 
2.920320000000e+007 1.206500000000e+001 
2.924640000000e+007 1.206500000000e+001 
2.928960000000e+007 1.206499999997e+001 
2.933280000000e+007 1.206499992878e+001 
2.937600000000e+007 1.206499992874e+001 
2.941920000000e+007 1.206499992875e+001 
2.946240000000e+007 1.206499992878e+001 
2.950560000000e+007 1.206499992882e+001 
2.954880000000e+007 1.206499992886e+001 
2.959200000000e+007 1.206499992889e+001 
2.963520000000e+007 1.206499992893e+001 
2.967840000000e+007 1.206499992878e+001 
2.972160000000e+007 1.206499992124e+001 
2.976480000000e+007 1.206500000000e+001 
2.980800000000e+007 1.206500000000e+001 
2.985120000000e+007 1.206499999995e+001 
2.989440000000e+007 1.206499991469e+001 
2.993760000000e+007 1.206499991464e+001 
2.998080000000e+007 1.206499990923e+001 
3.002400000000e+007 1.206499991455e+001 
3.006720000000e+007 1.206499991471e+001 
3.011040000000e+007 1.206499991476e+001 
3.015360000000e+007 1.206499990611e+001 
3.019680000000e+007 1.206499991463e+001 
3.024000000000e+007 1.206499991487e+001 
3.028320000000e+007 1.206499990985e+001 
3.032640000000e+007 1.206499990307e+001 
3.036960000000e+007 1.206499989970e+001 
3.041280000000e+007 1.206499989849e+001 
3.045600000000e+007 1.206499989833e+001 
3.049920000000e+007 1.206499989782e+001 
3.054240000000e+007 1.206499989780e+001 
3.058560000000e+007 1.206499989782e+001 
3.062880000000e+007 1.206499989786e+001 
3.067200000000e+007 1.206499989791e+001 
3.071520000000e+007 1.206499989796e+001 
3.075840000000e+007 1.206499989801e+001 
3.080160000000e+007 1.206499989806e+001 
3.084480000000e+007 1.206499989309e+001 
3.088800000000e+007 1.206499988462e+001 
3.093120000000e+007 1.206499988034e+001 
3.097440000000e+007 1.206499987865e+001 
3.101760000000e+007 1.206499987304e+001 
3.106080000000e+007 1.206499987775e+001 
3.110400000000e+007 1.206499987784e+001 
3.114720000000e+007 1.206499987788e+001 
3.119040000000e+007 1.206499987793e+001 
3.123360000000e+007 1.206499987798e+001 
3.127680000000e+007 1.206499987803e+001 
3.132000000000e+007 1.206499987809e+001 
3.136320000000e+007 1.206499986455e+001 
3.140640000000e+007 1.206499987356e+001 
3.144960000000e+007 1.206499986272e+001 