 TITLE = "Profiles along polylines"
 VARIABLES = "DIST" "PRESSURE1" "SATURATION1" "TCE" "NAPL_TCE" 
 ZONE T="TIME=0.000000000000e+000"
0.000000000000e+000 9.806700000000e+004 1.000000000000e+000 1.000000000000e-010 0.000000000000e+000 
3.300000000000e-001 9.806700000000e+004 1.000000000000e+000 1.000000000000e-010 0.000000000000e+000 
6.700000000000e-001 9.806700000000e+004 1.000000000000e+000 1.000000000000e-010 0.000000000000e+000 
1.000000000000e+000 9.806700000000e+004 1.000000000000e+000 1.000000000000e-010 0.000000000000e+000 
1.330000000000e+000 9.806700000000e+004 1.000000000000e+000 1.000000000000e-010 0.000000000000e+000 
1.670000000000e+000 9.806700000000e+004 1.000000000000e+000 1.000000000000e-010 0.000000000000e+000 
2.000000000000e+000 9.806700000000e+004 1.000000000000e+000 1.000000000000e-010 0.000000000000e+000 
2.330000000000e+000 9.806700000000e+004 1.000000000000e+000 1.000000000000e-010 0.000000000000e+000 
2.670000000000e+000 9.806700000000e+004 1.000000000000e+000 1.000000000000e-010 0.000000000000e+000 
3.000000000000e+000 9.806700000000e+004 1.000000000000e+000 1.000000000000e-010 0.000000000000e+000 
3.330000000000e+000 9.806700000000e+004 1.000000000000e+000 1.000000000000e-010 0.000000000000e+000 
3.670000000000e+000 9.806700000000e+004 1.000000000000e+000 1.000000000000e-010 0.000000000000e+000 
4.000000000000e+000 9.806700000000e+004 1.000000000000e+000 1.000000000000e-010 0.000000000000e+000 
4.330000000000e+000 9.806700000000e+004 1.000000000000e+000 1.000000000000e-010 0.000000000000e+000 
4.670000000000e+000 9.806700000000e+004 1.000000000000e+000 1.000000000000e-010 0.000000000000e+000 
5.000000000000e+000 9.806700000000e+004 9.500000000000e-001 1.206500000000e+001 1.944442500000e+002 
5.330000000000e+000 9.806700000000e+004 9.500000000000e-001 1.206500000000e+001 1.944442500000e+002 
5.670000000000e+000 9.806700000000e+004 9.500000000000e-001 1.206500000000e+001 1.944442500000e+002 
6.000000000000e+000 9.806700000000e+004 9.500000000000e-001 1.206500000000e+001 1.944442500000e+002 
6.330000000000e+000 9.806700000000e+004 9.500000000000e-001 1.206500000000e+001 1.944442500000e+002 
6.670000000000e+000 9.806700000000e+004 9.500000000000e-001 1.206500000000e+001 1.944442500000e+002 
7.000000000000e+000 9.806700000000e+004 9.500000000000e-001 1.206500000000e+001 1.944442500000e+002 
7.330000000000e+000 9.806700000000e+004 9.500000000000e-001 1.206500000000e+001 1.944442500000e+002 
7.670000000000e+000 9.806700000000e+004 9.500000000000e-001 1.206500000000e+001 1.944442500000e+002 
8.000000000000e+000 9.806700000000e+004 9.500000000000e-001 1.206500000000e+001 1.944442500000e+002 
8.330000000000e+000 9.806700000000e+004 9.500000000000e-001 1.206500000000e+001 1.944442500000e+002 
8.670000000000e+000 9.806700000000e+004 9.500000000000e-001 1.206500000000e+001 1.944442500000e+002 
9.000000000000e+000 9.806700000000e+004 9.500000000000e-001 1.206500000000e+001 1.944442500000e+002 
9.330000000000e+000 9.806700000000e+004 9.500000000000e-001 1.206500000000e+001 1.944442500000e+002 
9.670000000000e+000 9.806700000000e+004 9.500000000000e-001 1.206500000000e+001 1.944442500000e+002 
1.000000000000e+001 9.806700000000e+004 9.500000000000e-001 1.206500000000e+001 1.944442500000e+002 
1.033000000000e+001 9.806700000000e+004 9.500000000000e-001 1.206500000000e+001 1.944442500000e+002 
1.067000000000e+001 9.806700000000e+004 9.500000000000e-001 1.206500000000e+001 1.944442500000e+002 
1.100000000000e+001 9.806700000000e+004 9.500000000000e-001 1.206500000000e+001 1.944442500000e+002 
1.133000000000e+001 9.806700000000e+004 9.500000000000e-001 1.206500000000e+001 1.944442500000e+002 
1.167000000000e+001 9.806700000000e+004 9.500000000000e-001 1.206500000000e+001 1.944442500000e+002 
1.200000000000e+001 9.806700000000e+004 9.500000000000e-001 1.206500000000e+001 1.944442500000e+002 
1.233000000000e+001 9.806700000000e+004 9.500000000000e-001 1.206500000000e+001 1.944442500000e+002 
1.267000000000e+001 9.806700000000e+004 9.500000000000e-001 1.206500000000e+001 1.944442500000e+002 
1.300000000000e+001 9.806700000000e+004 9.500000000000e-001 1.206500000000e+001 1.944442500000e+002 
1.333000000000e+001 9.806700000000e+004 9.500000000000e-001 1.206500000000e+001 1.944442500000e+002 
1.367000000000e+001 9.806700000000e+004 9.500000000000e-001 1.206500000000e+001 1.944442500000e+002 
1.400000000000e+001 9.806700000000e+004 9.500000000000e-001 1.206500000000e+001 1.944442500000e+002 
1.433000000000e+001 9.806700000000e+004 9.500000000000e-001 1.206500000000e+001 1.944442500000e+002 
1.467000000000e+001 9.806700000000e+004 9.500000000000e-001 1.206500000000e+001 1.944442500000e+002 
1.500000000000e+001 9.806700000000e+004 9.500000000000e-001 1.206500000000e+001 1.944442500000e+002 
1.533000000000e+001 9.806700000000e+004 9.500000000000e-001 1.206500000000e+001 1.944442500000e+002 
1.567000000000e+001 9.806700000000e+004 9.500000000000e-001 1.206500000000e+001 1.944442500000e+002 
1.600000000000e+001 9.806700000000e+004 9.500000000000e-001 1.206500000000e+001 1.944442500000e+002 
1.633000000000e+001 9.806700000000e+004 9.500000000000e-001 1.206500000000e+001 1.944442500000e+002 
1.667000000000e+001 9.806700000000e+004 9.500000000000e-001 1.206500000000e+001 1.944442500000e+002 
1.700000000000e+001 9.806700000000e+004 9.500000000000e-001 1.206500000000e+001 1.944442500000e+002 
1.733000000000e+001 9.806700000000e+004 9.500000000000e-001 1.206500000000e+001 1.944442500000e+002 
1.767000000000e+001 9.806700000000e+004 9.500000000000e-001 1.206500000000e+001 1.944442500000e+002 
1.800000000000e+001 9.806700000000e+004 9.500000000000e-001 1.206500000000e+001 1.944442500000e+002 
1.833000000000e+001 9.806700000000e+004 9.500000000000e-001 1.206500000000e+001 1.944442500000e+002 
1.867000000000e+001 9.806700000000e+004 9.500000000000e-001 1.206500000000e+001 1.944442500000e+002 
1.900000000000e+001 9.806700000000e+004 9.500000000000e-001 1.206500000000e+001 1.944442500000e+002 
1.933000000000e+001 9.806700000000e+004 9.500000000000e-001 1.206500000000e+001 1.944442500000e+002 
1.967000000000e+001 9.806700000000e+004 9.500000000000e-001 1.206500000000e+001 1.944442500000e+002 
2.000000000000e+001 9.806700000000e+004 9.500000000000e-001 1.206500000000e+001 1.944442500000e+002 
2.033000000000e+001 9.806700000000e+004 9.500000000000e-001 1.206500000000e+001 1.944442500000e+002 
2.067000000000e+001 9.806700000000e+004 9.500000000000e-001 1.206500000000e+001 1.944442500000e+002 
2.100000000000e+001 9.806700000000e+004 9.500000000000e-001 1.206500000000e+001 1.944442500000e+002 
2.133000000000e+001 9.806700000000e+004 9.500000000000e-001 1.206500000000e+001 1.944442500000e+002 
2.167000000000e+001 9.806700000000e+004 9.500000000000e-001 1.206500000000e+001 1.944442500000e+002 
2.200000000000e+001 9.806700000000e+004 9.500000000000e-001 1.206500000000e+001 1.944442500000e+002 
2.233000000000e+001 9.806700000000e+004 9.500000000000e-001 1.206500000000e+001 1.944442500000e+002 
2.267000000000e+001 9.806700000000e+004 9.500000000000e-001 1.206500000000e+001 1.944442500000e+002 
2.300000000000e+001 9.806700000000e+004 9.500000000000e-001 1.206500000000e+001 1.944442500000e+002 
2.333000000000e+001 9.806700000000e+004 9.500000000000e-001 1.206500000000e+001 1.944442500000e+002 
2.367000000000e+001 9.806700000000e+004 9.500000000000e-001 1.206500000000e+001 1.944442500000e+002 
2.400000000000e+001 9.806700000000e+004 9.500000000000e-001 1.206500000000e+001 1.944442500000e+002 
2.433000000000e+001 9.806700000000e+004 9.500000000000e-001 1.206500000000e+001 1.944442500000e+002 
2.467000000000e+001 9.806700000000e+004 9.500000000000e-001 1.206500000000e+001 1.944442500000e+002 
2.500000000000e+001 9.806700000000e+004 9.500000000000e-001 1.206500000000e+001 1.944442500000e+002 
2.533000000000e+001 9.806700000000e+004 9.500000000000e-001 1.206500000000e+001 1.944442500000e+002 
2.567000000000e+001 9.806700000000e+004 9.500000000000e-001 1.206500000000e+001 1.944442500000e+002 
2.600000000000e+001 9.806700000000e+004 9.500000000000e-001 1.206500000000e+001 1.944442500000e+002 
2.633000000000e+001 9.806700000000e+004 9.500000000000e-001 1.206500000000e+001 1.944442500000e+002 
2.667000000000e+001 9.806700000000e+004 9.500000000000e-001 1.206500000000e+001 1.944442500000e+002 
2.700000000000e+001 9.806700000000e+004 9.500000000000e-001 1.206500000000e+001 1.944442500000e+002 
2.733000000000e+001 9.806700000000e+004 9.500000000000e-001 1.206500000000e+001 1.944442500000e+002 
2.767000000000e+001 9.806700000000e+004 9.500000000000e-001 1.206500000000e+001 1.944442500000e+002 
2.800000000000e+001 9.806700000000e+004 9.500000000000e-001 1.206500000000e+001 1.944442500000e+002 
2.833000000000e+001 9.806700000000e+004 9.500000000000e-001 1.206500000000e+001 1.944442500000e+002 
2.867000000000e+001 9.806700000000e+004 9.500000000000e-001 1.206500000000e+001 1.944442500000e+002 
2.900000000000e+001 9.806700000000e+004 9.500000000000e-001 1.206500000000e+001 1.944442500000e+002 
2.933000000000e+001 9.806700000000e+004 9.500000000000e-001 1.206500000000e+001 1.944442500000e+002 
2.967000000000e+001 9.806700000000e+004 9.500000000000e-001 1.206500000000e+001 1.944442500000e+002 
3.000000000000e+001 9.806700000000e+004 9.500000000000e-001 1.206500000000e+001 1.944442500000e+002 
3.033000000000e+001 9.806700000000e+004 1.000000000000e+000 1.000000000000e-010 0.000000000000e+000 
3.067000000000e+001 9.806700000000e+004 1.000000000000e+000 1.000000000000e-010 0.000000000000e+000 
3.100000000000e+001 9.806700000000e+004 1.000000000000e+000 1.000000000000e-010 0.000000000000e+000 
3.133000000000e+001 9.806700000000e+004 1.000000000000e+000 1.000000000000e-010 0.000000000000e+000 
3.167000000000e+001 9.806700000000e+004 1.000000000000e+000 1.000000000000e-010 0.000000000000e+000 
3.200000000000e+001 9.806700000000e+004 1.000000000000e+000 1.000000000000e-010 0.000000000000e+000 
3.233000000000e+001 9.806700000000e+004 1.000000000000e+000 1.000000000000e-010 0.000000000000e+000 
3.267000000000e+001 9.806700000000e+004 1.000000000000e+000 1.000000000000e-010 0.000000000000e+000 
3.300000000000e+001 9.806700000000e+004 1.000000000000e+000 1.000000000000e-010 0.000000000000e+000 
3.333000000000e+001 9.806700000000e+004 1.000000000000e+000 1.000000000000e-010 0.000000000000e+000 
3.367000000000e+001 9.806700000000e+004 1.000000000000e+000 1.000000000000e-010 0.000000000000e+000 
3.400000000000e+001 9.806700000000e+004 1.000000000000e+000 1.000000000000e-010 0.000000000000e+000 
3.433000000000e+001 9.806700000000e+004 1.000000000000e+000 1.000000000000e-010 0.000000000000e+000 
3.467000000000e+001 9.806700000000e+004 1.000000000000e+000 1.000000000000e-010 0.000000000000e+000 
3.500000000000e+001 9.806700000000e+004 1.000000000000e+000 1.000000000000e-010 0.000000000000e+000 
3.533000000000e+001 9.806700000000e+004 1.000000000000e+000 1.000000000000e-010 0.000000000000e+000 
3.567000000000e+001 9.806700000000e+004 1.000000000000e+000 1.000000000000e-010 0.000000000000e+000 
3.600000000000e+001 9.806700000000e+004 1.000000000000e+000 1.000000000000e-010 0.000000000000e+000 
3.633000000000e+001 9.806700000000e+004 1.000000000000e+000 1.000000000000e-010 0.000000000000e+000 
3.667000000000e+001 9.806700000000e+004 1.000000000000e+000 1.000000000000e-010 0.000000000000e+000 
3.700000000000e+001 9.806700000000e+004 1.000000000000e+000 1.000000000000e-010 0.000000000000e+000 
3.733000000000e+001 9.806700000000e+004 1.000000000000e+000 1.000000000000e-010 0.000000000000e+000 
3.767000000000e+001 9.806700000000e+004 1.000000000000e+000 1.000000000000e-010 0.000000000000e+000 
3.800000000000e+001 9.806700000000e+004 1.000000000000e+000 1.000000000000e-010 0.000000000000e+000 
3.833000000000e+001 9.806700000000e+004 1.000000000000e+000 1.000000000000e-010 0.000000000000e+000 
3.867000000000e+001 9.806700000000e+004 1.000000000000e+000 1.000000000000e-010 0.000000000000e+000 
3.900000000000e+001 9.806700000000e+004 1.000000000000e+000 1.000000000000e-010 0.000000000000e+000 
3.933000000000e+001 9.806700000000e+004 1.000000000000e+000 1.000000000000e-010 0.000000000000e+000 
3.967000000000e+001 9.806700000000e+004 1.000000000000e+000 1.000000000000e-010 0.000000000000e+000 
4.000000000000e+001 9.806700000000e+004 1.000000000000e+000 1.000000000000e-010 0.000000000000e+000 
4.033000000000e+001 9.806700000000e+004 1.000000000000e+000 1.000000000000e-010 0.000000000000e+000 
4.067000000000e+001 9.806700000000e+004 1.000000000000e+000 1.000000000000e-010 0.000000000000e+000 
4.100000000000e+001 9.806700000000e+004 1.000000000000e+000 1.000000000000e-010 0.000000000000e+000 
4.133000000000e+001 9.806700000000e+004 1.000000000000e+000 1.000000000000e-010 0.000000000000e+000 
4.167000000000e+001 9.806700000000e+004 1.000000000000e+000 1.000000000000e-010 0.000000000000e+000 
4.200000000000e+001 9.806700000000e+004 1.000000000000e+000 1.000000000000e-010 0.000000000000e+000 
4.233000000000e+001 9.806700000000e+004 1.000000000000e+000 1.000000000000e-010 0.000000000000e+000 
4.267000000000e+001 9.806700000000e+004 1.000000000000e+000 1.000000000000e-010 0.000000000000e+000 
4.300000000000e+001 9.806700000000e+004 1.000000000000e+000 1.000000000000e-010 0.000000000000e+000 
4.333000000000e+001 9.806700000000e+004 1.000000000000e+000 1.000000000000e-010 0.000000000000e+000 
4.367000000000e+001 9.806700000000e+004 1.000000000000e+000 1.000000000000e-010 0.000000000000e+000 
4.400000000000e+001 9.806700000000e+004 1.000000000000e+000 1.000000000000e-010 0.000000000000e+000 
4.433000000000e+001 9.806700000000e+004 1.000000000000e+000 1.000000000000e-010 0.000000000000e+000 
4.467000000000e+001 9.806700000000e+004 1.000000000000e+000 1.000000000000e-010 0.000000000000e+000 
4.500000000000e+001 9.806700000000e+004 1.000000000000e+000 1.000000000000e-010 0.000000000000e+000 
4.533000000000e+001 9.806700000000e+004 1.000000000000e+000 1.000000000000e-010 0.000000000000e+000 
4.567000000000e+001 9.806700000000e+004 1.000000000000e+000 1.000000000000e-010 0.000000000000e+000 
4.600000000000e+001 9.806700000000e+004 1.000000000000e+000 1.000000000000e-010 0.000000000000e+000 
4.633000000000e+001 9.806700000000e+004 1.000000000000e+000 1.000000000000e-010 0.000000000000e+000 
4.667000000000e+001 9.806700000000e+004 1.000000000000e+000 1.000000000000e-010 0.000000000000e+000 
4.700000000000e+001 9.806700000000e+004 1.000000000000e+000 1.000000000000e-010 0.000000000000e+000 
4.733000000000e+001 9.806700000000e+004 1.000000000000e+000 1.000000000000e-010 0.000000000000e+000 
4.767000000000e+001 9.806700000000e+004 1.000000000000e+000 1.000000000000e-010 0.000000000000e+000 
4.800000000000e+001 9.806700000000e+004 1.000000000000e+000 1.000000000000e-010 0.000000000000e+000 
4.833000000000e+001 9.806700000000e+004 1.000000000000e+000 1.000000000000e-010 0.000000000000e+000 
4.867000000000e+001 9.806700000000e+004 1.000000000000e+000 1.000000000000e-010 0.000000000000e+000 
4.900000000000e+001 9.806700000000e+004 1.000000000000e+000 1.000000000000e-010 0.000000000000e+000 
4.933000000000e+001 9.806700000000e+004 1.000000000000e+000 1.000000000000e-010 0.000000000000e+000 
4.967000000000e+001 9.806700000000e+004 1.000000000000e+000 1.000000000000e-010 0.000000000000e+000 
5.000000000000e+001 9.806700000000e+004 1.000000000000e+000 1.000000000000e-010 0.000000000000e+000 
 ZONE T="TIME=8.640000000000e+006"
0.000000000000e+000 9.810000000000e+004 1.000000000000e+000 1.000000000000e-010 0.000000000000e+000 
3.300000000000e-001 9.783300239754e+004 1.000000000000e+000 1.000000000000e-010 0.000000000000e+000 
6.700000000000e-001 9.755791395864e+004 1.000000000000e+000 1.000000000000e-010 0.000000000000e+000 
1.000000000000e+000 9.729091635616e+004 1.000000000000e+000 1.000000000000e-010 0.000000000000e+000 
1.330000000000e+000 9.702391875367e+004 1.000000000000e+000 9.999999999993e-011 0.000000000000e+000 
1.670000000000e+000 9.674883031473e+004 1.000000000000e+000 1.000000000009e-010 0.000000000000e+000 
2.000000000000e+000 9.648183271222e+004 1.000000000000e+000 9.999999998812e-011 0.000000000000e+000 
2.330000000000e+000 9.621483510971e+004 1.000000000000e+000 1.000000001573e-010 0.000000000000e+000 
2.670000000000e+000 9.593974667073e+004 1.000000000000e+000 9.999999826782e-011 0.000000000000e+000 
3.000000000000e+000 9.567274906817e+004 1.000000000000e+000 1.000000216996e-010 0.000000000000e+000 
3.330000000000e+000 9.540575146558e+004 1.000000000000e+000 9.999973922988e-011 0.000000000000e+000 
3.670000000000e+000 9.513066302652e+004 1.000000000000e+000 1.000026082035e-010 0.000000000000e+000 
4.000000000000e+000 9.486366542387e+004 1.000000000000e+000 9.997202174361e-011 0.000000000000e+000 
4.330000000000e+000 9.459666782120e+004 1.000000000000e+000 1.002697646293e-010 0.000000000000e+000 
4.670000000000e+000 9.432157938206e+004 1.000000000000e+000 9.793680587159e-011 0.000000000000e+000 
5.000000000000e+000 9.405458177933e+004 1.000000000000e+000 1.130749512870e-010 1.009972735342e-016 
5.330000000000e+000 9.378758417656e+004 1.000000000000e+000 1.599688845715e-010 1.000000000000e-020 
5.670000000000e+000 9.351249573730e+004 1.000000000000e+000 7.299931705924e-010 1.622359253449e-016 
6.000000000000e+000 9.324549813445e+004 1.000000000000e+000 4.133657494669e-008 1.651172426559e-016 
6.330000000000e+000 9.297850053156e+004 1.000000000000e+000 1.000000000000e-020 1.000000000000e-020 
6.670000000000e+000 9.270341209218e+004 1.000000000000e+000 7.322508706850e-006 1.626891951249e-016 
7.000000000000e+000 9.243641448922e+004 1.000000000000e+000 3.448713892735e-005 8.140635422944e-017 
7.330000000000e+000 9.216941688622e+004 1.000000000000e+000 1.127506703464e-004 1.538242361180e-013 
7.670000000000e+000 9.189432844672e+004 1.000000000000e+000 3.959410390658e-002 1.209738369770e-007 
8.000000000000e+000 9.162733084363e+004 1.000000000000e+000 9.153095124734e-001 5.892917767455e-002 
8.330000000000e+000 9.135620052921e+004 9.930169105276e-001 1.206500000000e+001 2.625721096655e+001 
8.670000000000e+000 9.106775386846e+004 9.855480793809e-001 1.206500000000e+001 5.511861774157e+001 
9.000000000000e+000 9.077925199779e+004 9.795988116888e-001 1.206500000000e+001 7.826418639436e+001 
9.330000000000e+000 9.048358539198e+004 9.746756102282e-001 1.206500000000e+001 9.748793184376e+001 
9.670000000000e+000 9.017259096357e+004 9.704869558098e-001 1.206500000000e+001 1.138827927103e+002 
1.000000000000e+001 8.986548707638e+004 9.671134590894e-001 1.206500000000e+001 1.271092406023e+002 
1.033000000000e+001 8.955399909929e+004 9.643053200789e-001 1.206500000000e+001 1.381326522186e+002 
1.067000000000e+001 8.922919620652e+004 9.618973158590e-001 1.206500000000e+001 1.475939239734e+002 
1.100000000000e+001 8.891074368444e+004 9.599272466331e-001 1.206500000000e+001 1.553390799641e+002 
1.133000000000e+001 8.858966192190e+004 9.583451137140e-001 1.206500000000e+001 1.615656409617e+002 
1.167000000000e+001 8.825653557414e+004 9.569210831167e-001 1.206500000000e+001 1.671691646067e+002 
1.200000000000e+001 8.793130968268e+004 9.558273530065e-001 1.206500000000e+001 1.714775215529e+002 
1.233000000000e+001 8.760445367279e+004 9.547728121916e-001 1.206500000000e+001 1.756256303547e+002 
1.267000000000e+001 8.726632132153e+004 9.540832596025e-001 1.206500000000e+001 1.783484142866e+002 
1.300000000000e+001 8.693709956148e+004 9.534236832109e-001 1.206500000000e+001 1.809472529294e+002 
1.333000000000e+001 8.660692453382e+004 9.528448708301e-001 1.206500000000e+001 1.832264713822e+002 
1.367000000000e+001 8.626591424285e+004 9.523807797145e-001 1.206500000000e+001 1.850562758216e+002 
1.400000000000e+001 8.593427449505e+004 9.519938882597e-001 1.206500000000e+001 1.865813793305e+002 
1.433000000000e+001 8.560209926216e+004 9.516910734032e-001 1.206500000000e+001 1.877763759690e+002 
1.467000000000e+001 8.525938775780e+004 9.514070033830e-001 1.206500000000e+001 1.888960623748e+002 
1.500000000000e+001 8.492635719852e+004 9.511792374594e-001 1.206500000000e+001 1.897940402152e+002 
1.533000000000e+001 8.459300010394e+004 9.509885036599e-001 1.206500000000e+001 1.905460639035e+002 
1.567000000000e+001 8.424925594272e+004 9.508247068137e-001 1.206500000000e+001 1.911919203977e+002 
1.600000000000e+001 8.391538980137e+004 9.506916685174e-001 1.206500000000e+001 1.917165288432e+002 
1.633000000000e+001 8.358133209111e+004 9.505799089257e-001 1.206499999999e+001 1.921572407694e+002 
1.667000000000e+001 8.323698368333e+004 9.504837704740e-001 1.206500000000e+001 1.925363624199e+002 
1.700000000000e+001 8.290262665540e+004 9.504056816201e-001 1.206500000000e+001 1.928443123693e+002 
1.733000000000e+001 8.256815703862e+004 9.503401468832e-001 1.206500000000e+001 1.931027588198e+002 
1.767000000000e+001 8.222345347467e+004 9.502837694039e-001 1.206500000000e+001 1.933250956401e+002 
1.800000000000e+001 8.188880809597e+004 9.502379728201e-001 1.206500000000e+001 1.935057067410e+002 
1.833000000000e+001 8.155409661843e+004 9.501995362365e-001 1.206500000000e+001 1.936572933244e+002 
1.867000000000e+001 8.120918454473e+004 9.501664685828e-001 1.206500000000e+001 1.937877070494e+002 
1.900000000000e+001 8.087436989525e+004 9.501396057619e-001 1.206500000000e+001 1.938936506730e+002 
1.933000000000e+001 8.053951645049e+004 9.501170591954e-001 1.206500000000e+001 1.939825720814e+002 
1.967000000000e+001 8.019448199507e+004 9.500976613547e-001 1.206500000000e+001 1.940590756346e+002 
2.000000000000e+001 7.985956800086e+004 9.500819028930e-001 1.206500000000e+001 1.941212260400e+002 
2.033000000000e+001 7.952463124015e+004 9.500686761581e-001 1.206500000000e+001 1.941733916611e+002 
2.067000000000e+001 7.917952496610e+004 9.500572963734e-001 1.206500000000e+001 1.942182731369e+002 
2.100000000000e+001 7.884455267449e+004 9.500480514858e-001 1.206500000000e+001 1.942547347473e+002 
2.133000000000e+001 7.850956702383e+004 9.500402917605e-001 1.206500000000e+001 1.942853389795e+002 
2.167000000000e+001 7.816441860756e+004 9.500336155090e-001 1.206500000000e+001 1.943116700562e+002 
2.200000000000e+001 7.782941210852e+004 9.500281916990e-001 1.206500000000e+001 1.943330615477e+002 
2.233000000000e+001 7.749439777106e+004 9.500236391709e-001 1.206500000000e+001 1.943510167281e+002 
2.267000000000e+001 7.714922462772e+004 9.500197222765e-001 1.206500000000e+001 1.943664649847e+002 
2.300000000000e+001 7.681419805773e+004 9.500165401597e-001 1.206500000000e+001 1.943790152847e+002 
2.333000000000e+001 7.647916688870e+004 9.500138692063e-001 1.206500000000e+001 1.943895495589e+002 
2.367000000000e+001 7.613397923728e+004 9.500115711682e-001 1.206500000000e+001 1.943986130565e+002 
2.400000000000e+001 7.579894089113e+004 9.500097042171e-001 1.206500000000e+001 1.944059763438e+002 
2.433000000000e+001 7.546389984666e+004 9.500081371619e-001 1.206500000000e+001 1.944121568395e+002 
2.467000000000e+001 7.511870368309e+004 9.500067888938e-001 1.206500000000e+001 1.944174744363e+002 
2.500000000000e+001 7.478365842778e+004 9.500056935442e-001 1.206500000000e+001 1.944217945191e+002 
2.533000000000e+001 7.444861158939e+004 9.500047741434e-001 1.206500000000e+001 1.944254206565e+002 
2.567000000000e+001 7.410341043184e+004 9.500039831054e-001 1.206500000000e+001 1.944285405292e+002 
2.600000000000e+001 7.376836112303e+004 9.500033404555e-001 1.206500000000e+001 1.944310751558e+002 
2.633000000000e+001 7.343331088548e+004 9.500028010357e-001 1.206500000000e+001 1.944332026409e+002 
2.667000000000e+001 7.308810679808e+004 9.500023369270e-001 1.206500000000e+001 1.944350330975e+002 
2.700000000000e+001 7.275305511124e+004 9.500019598786e-001 1.206500000000e+001 1.944365201860e+002 
2.733000000000e+001 7.241800287956e+004 9.500016433960e-001 1.206500000000e+001 1.944377684015e+002 
2.767000000000e+001 7.207279707344e+004 9.500013710988e-001 1.206500000000e+001 1.944388423490e+002 
2.800000000000e+001 7.173774399164e+004 9.500011498842e-001 1.206500000000e+001 1.944397148256e+002 
2.833000000000e+001 7.140269059026e+004 9.500009641536e-001 1.206500000000e+001 1.944404473495e+002 
2.867000000000e+001 7.105748377645e+004 9.500008049629e-001 1.206500000000e+001 1.944410752332e+002 
2.900000000000e+001 7.072242987105e+004 9.500006671599e-001 1.206500000000e+001 1.944416182902e+002 
2.933000000000e+001 7.038737586181e+004 9.500006725424e-001 1.206500000000e+001 1.944416033643e+002 
2.967000000000e+001 7.004216751291e+004 9.499991997787e-001 1.206500000000e+001 1.944473360585e+002 
3.000000000000e+001 6.970712640503e+004 9.500185569302e-001 1.206500000000e+001 1.943720810398e+002 
3.033000000000e+001 6.940904708599e+004 1.000000000000e+000 1.206491051677e+001 0.000000000000e+000 
3.067000000000e+001 6.913395865005e+004 1.000000000000e+000 1.206491142118e+001 0.000000000000e+000 
3.100000000000e+001 6.886696105072e+004 1.000000000000e+000 1.206491230984e+001 0.000000000000e+000 
3.133000000000e+001 6.859996345165e+004 1.000000000000e+000 1.206491318199e+001 0.000000000000e+000 
3.167000000000e+001 6.832487501653e+004 1.000000000000e+000 1.206491404020e+001 0.000000000000e+000 
3.200000000000e+001 6.805787741796e+004 1.000000000000e+000 1.206491481894e+001 0.000000000000e+000 
3.233000000000e+001 6.779087981964e+004 1.000000000000e+000 1.206491553367e+001 0.000000000000e+000 
3.267000000000e+001 6.751579138526e+004 1.000000000000e+000 1.206491619505e+001 0.000000000000e+000 
3.300000000000e+001 6.724879378745e+004 1.000000000000e+000 1.206491676248e+001 0.000000000000e+000 
3.333000000000e+001 6.698179618994e+004 1.000000000000e+000 1.206491725676e+001 0.000000000000e+000 
3.367000000000e+001 6.670670775644e+004 1.000000000000e+000 1.206491769105e+001 0.000000000000e+000 
3.400000000000e+001 6.643971015951e+004 1.000000000000e+000 1.206491804542e+001 0.000000000000e+000 
3.433000000000e+001 6.617271256287e+004 1.000000000000e+000 1.206491833944e+001 0.000000000000e+000 
3.467000000000e+001 6.589762413022e+004 1.000000000000e+000 1.206491858536e+001 0.000000000000e+000 
3.500000000000e+001 6.563062653407e+004 1.000000000000e+000 1.206491877678e+001 0.000000000000e+000 
3.533000000000e+001 6.536362893821e+004 1.000000000000e+000 1.206491892885e+001 0.000000000000e+000 
3.567000000000e+001 6.508854050642e+004 1.000000000000e+000 1.206491905140e+001 0.000000000000e+000 
3.600000000000e+001 6.482154291117e+004 1.000000000000e+000 1.206491914456e+001 0.000000000000e+000 
3.633000000000e+001 6.455454531626e+004 1.000000000000e+000 1.206491921858e+001 0.000000000000e+000 
3.667000000000e+001 6.427945688546e+004 1.000000000000e+000 1.206491928063e+001 0.000000000000e+000 
3.700000000000e+001 6.401245929115e+004 1.000000000000e+000 1.206491933234e+001 0.000000000000e+000 
3.733000000000e+001 6.374546169710e+004 1.000000000000e+000 1.206491937996e+001 0.000000000000e+000 
3.767000000000e+001 6.347037326716e+004 1.000000000000e+000 1.206491942863e+001 0.000000000000e+000 
3.800000000000e+001 6.320337567371e+004 1.000000000000e+000 1.206491947851e+001 0.000000000000e+000 
3.833000000000e+001 6.293637808061e+004 1.000000000000e+000 1.206491953335e+001 0.000000000000e+000 
3.867000000000e+001 6.266128965171e+004 1.000000000000e+000 1.206491959712e+001 0.000000000000e+000 
3.900000000000e+001 6.239429205932e+004 1.000000000000e+000 1.206491966730e+001 0.000000000000e+000 
3.933000000000e+001 6.212729446725e+004 1.000000000000e+000 1.206491974654e+001 0.000000000000e+000 
3.967000000000e+001 6.185220603937e+004 1.000000000000e+000 1.206491983841e+001 0.000000000000e+000 
4.000000000000e+001 6.158520844790e+004 1.000000000000e+000 1.206491993761e+001 0.000000000000e+000 
4.033000000000e+001 6.131821085676e+004 1.000000000000e+000 1.206492004669e+001 0.000000000000e+000 
4.067000000000e+001 6.104312242988e+004 1.000000000000e+000 1.206492016939e+001 0.000000000000e+000 
4.100000000000e+001 6.077612483946e+004 1.000000000000e+000 1.206492029805e+001 0.000000000000e+000 
4.133000000000e+001 6.050912724940e+004 1.000000000000e+000 1.206492043571e+001 0.000000000000e+000 
4.167000000000e+001 6.023403882368e+004 1.000000000000e+000 1.206492058663e+001 0.000000000000e+000 
4.200000000000e+001 5.996704123433e+004 1.000000000000e+000 1.206492074129e+001 0.000000000000e+000 
4.233000000000e+001 5.970004364531e+004 1.000000000000e+000 1.206492090353e+001 0.000000000000e+000 
4.267000000000e+001 5.942495522059e+004 1.000000000000e+000 1.206492107821e+001 0.000000000000e+000 
4.300000000000e+001 5.915795763225e+004 1.000000000000e+000 1.206492125449e+001 0.000000000000e+000 
4.333000000000e+001 5.889096004426e+004 1.000000000000e+000 1.206492143698e+001 0.000000000000e+000 
4.367000000000e+001 5.861587162066e+004 1.000000000000e+000 1.206492163118e+001 0.000000000000e+000 
4.400000000000e+001 5.834887403343e+004 1.000000000000e+000 1.206492182522e+001 0.000000000000e+000 
4.433000000000e+001 5.808187644659e+004 1.000000000000e+000 1.206492202442e+001 0.000000000000e+000 
4.467000000000e+001 5.780678802413e+004 1.000000000000e+000 1.206492223484e+001 0.000000000000e+000 
4.500000000000e+001 5.753979043796e+004 1.000000000000e+000 1.206492244377e+001 0.000000000000e+000 
4.533000000000e+001 5.727279285212e+004 1.000000000000e+000 1.206492265711e+001 0.000000000000e+000 
4.567000000000e+001 5.699770443072e+004 1.000000000000e+000 1.206492288137e+001 0.000000000000e+000 
4.600000000000e+001 5.673070684559e+004 1.000000000000e+000 1.206492310311e+001 0.000000000000e+000 
4.633000000000e+001 5.646370926088e+004 1.000000000000e+000 1.206492332866e+001 0.000000000000e+000 
4.667000000000e+001 5.618862084066e+004 1.000000000000e+000 1.206492356491e+001 0.000000000000e+000 
4.700000000000e+001 5.592162325671e+004 1.000000000000e+000 1.206492379769e+001 0.000000000000e+000 
4.733000000000e+001 5.565462567310e+004 1.000000000000e+000 1.206492403371e+001 0.000000000000e+000 
4.767000000000e+001 5.537953725399e+004 1.000000000000e+000 1.206492428009e+001 0.000000000000e+000 