TITLE = "Profiles along polylines"
VARIABLES = x p 
ZONE T="STEADY STATE"
	100		1.00000E+05 
	99		3.16070E+05 
	98		4.35660E+05 
	97		5.28867E+05 
	95		6.77864E+05 
	93		7.99562E+05 
	90		9.53415E+05 
	80		1.34462E+06 
	70		1.64530E+06 
	60		1.89895E+06 
	50		2.12250E+06 
	30		2.51058E+06 
	0		3.00000E+06 
