variables="Time","FLUX"   
ZONE T="POINT=POINT3"              
0.0             0.0         
40.90909091	2.08333E-06     
59.09090909	4.16667E-06     
78	0.00000625              
100	        8.33333E-06     
118.1818182	1.04167E-05     
140.9090909	0.0000125       
163.6363636	1.45833E-05     
177.2727273	1.58333E-05     
200	1.64167E-05             
222.7272727	1.66667E-05     
1218.181818	1.66667E-05     
1236.363636	0.0000125       
1245.454545	1.04167E-05     
1272.727273	8.33333E-06     
1290.909091	0.00000625      
1381.818182	4.16667E-06     
                       