TITLE = "Profiles along polylines"
VARIABLES = "DIST" "A" "B" 
ZONE T="TIME=0.000000000000e+000"
0.00000E+00	2.10000E+00	9.77596E+02
4.00000E-05	1.77240E+00	8.48747E+02
8.00000E-05	1.49847E+00	7.32668E+02
1.20000E-04	1.26940E+00	6.29362E+02
1.60000E-04	1.07785E+00	5.38356E+02
2.00000E-04	9.17683E-01	4.58867E+02
2.40000E-04	7.83748E-01	3.89930E+02
2.80000E-04	6.71751E-01	3.30501E+02
3.20000E-04	5.78100E-01	2.79523E+02
3.60000E-04	4.99788E-01	2.35977E+02
4.00000E-04	4.34303E-01	1.98909E+02
4.40000E-04	3.79545E-01	1.67446E+02
4.80000E-04	3.33756E-01	1.40808E+02
5.20000E-04	2.95467E-01	1.18299E+02
5.60000E-04	2.63450E-01	9.93125E+01
6.00000E-04	2.36677E-01	8.33197E+01
6.40000E-04	2.14290E-01	6.98647E+01
6.80000E-04	1.95569E-01	5.85562E+01
7.20000E-04	1.79915E-01	4.90596E+01
7.60000E-04	1.66825E-01	4.10902E+01
8.00000E-04	1.55879E-01	3.44062E+01
8.40000E-04	1.46726E-01	2.88031E+01
8.80000E-04	1.39073E-01	2.41081E+01
9.20000E-04	1.32673E-01	2.01752E+01
9.60000E-04	1.27321E-01	1.68817E+01
1.00000E-03	1.22846E-01	1.41243E+01
1.04000E-03	1.19104E-01	1.18163E+01
1.08000E-03	1.15975E-01	9.88462E+00
1.12000E-03	1.13358E-01	8.26821E+00
1.16000E-03	1.11170E-01	6.91577E+00
1.20000E-03	1.09340E-01	5.78429E+00
1.24000E-03	1.07810E-01	4.83775E+00
1.28000E-03	1.06531E-01	4.04598E+00
1.32000E-03	1.05461E-01	3.38370E+00
1.36000E-03	1.04567E-01	2.82977E+00
1.40000E-03	1.03819E-01	2.36648E+00
1.44000E-03	1.03193E-01	1.97900E+00
1.48000E-03	1.02670E-01	1.65495E+00
1.52000E-03	1.02233E-01	1.38395E+00
1.56000E-03	1.01867E-01	1.15731E+00
1.60000E-03	1.01561E-01	9.67782E-01
1.64000E-03	1.01306E-01	8.09286E-01
1.68000E-03	1.01092E-01	6.76742E-01
1.72000E-03	1.00913E-01	5.65904E-01
1.76000E-03	1.00763E-01	4.73216E-01
1.80000E-03	1.00638E-01	3.95708E-01
1.84000E-03	1.00534E-01	3.30893E-01
1.88000E-03	1.00446E-01	2.76692E-01
1.92000E-03	1.00373E-01	2.31368E-01
1.96000E-03	1.00312E-01	1.93467E-01
2.00000E-03	1.00261E-01	1.61772E-01
2.04000E-03	1.00218E-01	1.35267E-01
2.08000E-03	1.00182E-01	1.13102E-01
2.12000E-03	1.00153E-01	9.45655E-02
2.16000E-03	1.00128E-01	7.90631E-02
2.20000E-03	1.00107E-01	6.60974E-02
2.24000E-03	1.00089E-01	5.52523E-02
2.28000E-03	1.00074E-01	4.61799E-02
2.32000E-03	1.00062E-01	3.85892E-02
2.36000E-03	1.00052E-01	3.22366E-02
2.40000E-03	1.00043E-01	2.69184E-02
2.44000E-03	1.00036E-01	2.24638E-02
2.48000E-03	1.00030E-01	1.87299E-02
2.52000E-03	1.00025E-01	1.55970E-02
2.56000E-03	1.00021E-01	1.29646E-02
2.60000E-03	1.00017E-01	1.07481E-02
2.64000E-03	1.00014E-01	8.87647E-03
2.68000E-03	1.00012E-01	7.28964E-03
2.72000E-03	1.00010E-01	5.93670E-03
2.76000E-03	1.00008E-01	4.77424E-03
2.80000E-03	1.00006E-01	3.76496E-03
2.84000E-03	1.00005E-01	2.87648E-03
2.88000E-03	1.00003E-01	2.08030E-03
2.92000E-03	1.00002E-01	1.35086E-03
2.96000E-03	1.00001E-01	6.64766E-04
3.00000E-03	1.00000E-01	0.00000E+00
