TITLE = "Profiles along polylines"
VARIABLES = "DIST" "PCE-l (AS)" "PCE-h (AS)"
ZONE T="TIME=0.000000000000e+000"
0.00000000000E+00	9.89217600000E-01	1.07823600000E-02
7.30000000000E+00	6.75436000000E-01	7.37611000000E-03
1.46000000000E+01	4.61186500000E-01	5.04592500000E-03
2.19000000000E+01	3.14897300000E-01	3.45186800000E-03
2.92000000000E+01	2.15011300000E-01	2.36139000000E-03
3.65000000000E+01	1.46809300000E-01	1.61540400000E-03
4.38000000000E+01	1.00241100000E-01	1.10508200000E-03
5.11000000000E+01	6.84444600000E-02	7.55975900000E-04
5.84000000000E+01	4.67337500000E-02	5.17155700000E-04
6.57000000000E+01	3.19097200000E-02	3.53781200000E-04
7.30000000000E+01	2.17879000000E-02	2.42018300000E-04
8.03000000000E+01	1.48767400000E-02	1.65562400000E-04
8.76000000000E+01	1.01578100000E-02	1.13259600000E-04
9.49000000000E+01	6.93573300000E-03	7.74797900000E-05
1.02200000000E+02	4.73570600000E-03	5.30031700000E-05
1.09500000000E+02	3.23353100000E-03	3.62589600000E-05
1.16800000000E+02	2.20784900000E-03	2.48044000000E-05
1.24100000000E+02	1.50751500000E-03	1.69684500000E-05
1.31400000000E+02	1.02932900000E-03	1.16079500000E-05
1.38700000000E+02	7.02823800000E-04	7.94088700000E-06
1.46000000000E+02	4.79886800000E-04	5.43228300000E-06
1.53300000000E+02	3.27665800000E-04	3.71617200000E-06
1.60600000000E+02	2.23729600000E-04	2.54219700000E-06
1.67900000000E+02	1.52762200000E-04	1.73909200000E-06
1.75200000000E+02	1.04305700000E-04	1.18969600000E-06
1.82500000000E+02	7.12197600000E-05	8.13859700000E-07
1.89800000000E+02	4.86287200000E-05	5.56753500000E-07
1.97100000000E+02	3.32036000000E-05	3.80869700000E-07
2.04400000000E+02	2.26713600000E-05	2.60549200000E-07
2.11700000000E+02	1.54799600000E-05	1.78239200000E-07
2.19000000000E+02	1.05696900000E-05	1.21931700000E-07
2.26300000000E+02	7.21696500000E-06	8.34122900000E-08
2.33600000000E+02	4.92773100000E-06	5.70615400000E-08
2.40900000000E+02	3.36464500000E-06	3.90352400000E-08
2.48200000000E+02	2.29737400000E-06	2.67036300000E-08
2.55500000000E+02	1.56864300000E-06	1.82676900000E-08
2.62800000000E+02	1.07106600000E-06	1.24967500000E-08
2.70100000000E+02	7.31322100000E-07	8.54890700000E-09
2.77400000000E+02	4.99345400000E-07	5.84822400000E-09
2.84700000000E+02	3.40952100000E-07	4.00071300000E-09
2.92000000000E+02	2.32801500000E-07	2.73684900000E-09
2.99300000000E+02	1.58956400000E-07	1.87225200000E-09
3.06600000000E+02	1.08535200000E-07	1.28078900000E-09
3.13900000000E+02	7.41076000000E-08	8.76175500000E-10
3.21200000000E+02	5.06005400000E-08	5.99383200000E-10
3.28500000000E+02	3.45499500000E-08	4.10032200000E-10
3.35800000000E+02	2.35906400000E-08	2.80499000000E-10
3.43100000000E+02	1.61076500000E-08	1.91886700000E-10
3.50400000000E+02	1.09982700000E-08	1.31267800000E-10
3.57700000000E+02	7.50960100000E-09	8.97990300000E-11
3.65000000000E+02	5.12754200000E-09	6.14306500000E-11
3.72300000000E+02	3.50107600000E-09	4.20241100000E-11
3.79600000000E+02	2.39052800000E-09	2.87482800000E-11
3.86900000000E+02	1.63224800000E-09	1.96664200000E-11
3.94200000000E+02	1.11449600000E-09	1.34536100000E-11
4.01500000000E+02	7.60975900000E-10	9.20348300000E-12
4.08800000000E+02	5.19593000000E-10	6.29601300000E-12
4.16100000000E+02	3.54777100000E-10	4.30704100000E-12
4.23400000000E+02	2.42241200000E-10	2.94640500000E-12
4.30700000000E+02	1.65401800000E-10	2.01560700000E-12
4.38000000000E+02	1.12936100000E-10	1.37885700000E-12
4.45300000000E+02	7.71125400000E-11	9.43262800000E-13
4.52600000000E+02	5.26523000000E-11	6.45276900000E-13
4.59900000000E+02	3.59508900000E-11	4.41427700000E-13
4.67200000000E+02	2.45472100000E-11	3.01976400000E-13
4.74500000000E+02	1.67607900000E-11	2.06579100000E-13
4.81800000000E+02	1.14442300000E-11	1.41318800000E-13
4.89100000000E+02	7.81410200000E-12	9.66748000000E-14
4.96400000000E+02	5.33545500000E-12	6.61342900000E-14
5.03700000000E+02	3.64303900000E-12	4.52418200000E-14
5.11000000000E+02	2.48746000000E-12	3.09494900000E-14
5.18300000000E+02	1.69843300000E-12	2.11722500000E-14
5.25600000000E+02	1.15968700000E-12	1.44837300000E-14
5.32900000000E+02	7.91832200000E-13	9.90817800000E-15
5.40200000000E+02	5.40661600000E-13	6.77808800000E-15
5.47500000000E+02	3.69162700000E-13	4.63682400000E-15
5.54800000000E+02	2.52063600000E-13	3.17200600000E-15
5.62100000000E+02	1.72108600000E-13	2.16993900000E-15
5.69400000000E+02	1.17515400000E-13	1.48443400000E-15
5.76700000000E+02	8.02393200000E-14	1.01548700000E-15
5.84000000000E+02	5.47872600000E-14	6.94684700000E-16
5.91300000000E+02	3.74086400000E-14	4.75227100000E-16
5.98600000000E+02	2.55425500000E-14	3.25098200000E-16
6.05900000000E+02	1.74404100000E-14	2.22396500000E-16
6.13200000000E+02	1.19082800000E-14	1.52139300000E-16
6.20500000000E+02	8.13094600000E-15	1.04077000000E-16
6.27800000000E+02	5.55178900000E-15	7.11979600000E-17
6.35100000000E+02	3.79074200000E-15	4.87057000000E-17
6.42400000000E+02	2.58829700000E-15	3.33189000000E-17
6.49700000000E+02	1.76726100000E-15	2.27928200000E-17
6.57000000000E+02	1.20664800000E-15	1.55918900000E-17
6.64300000000E+02	8.23847200000E-16	1.06656300000E-17
6.71600000000E+02	5.62465600000E-16	7.29547500000E-18
6.78900000000E+02	3.83967600000E-16	4.98964900000E-18
6.86200000000E+02	2.62065500000E-16	3.41193300000E-18
6.93500000000E+02	1.78805000000E-16	2.33228500000E-18
7.00800000000E+02	1.21928600000E-16	1.59335500000E-18
7.08100000000E+02	8.30687600000E-17	1.08752700000E-18
7.15400000000E+02	5.65143700000E-17	7.41213200000E-19
7.22700000000E+02	3.83678600000E-17	5.04098900000E-19
7.30000000000E+02	2.59695700000E-17	3.41785200000E-19
7.37300000000E+02	1.75043000000E-17	2.30751400000E-19
7.44600000000E+02	1.17326200000E-17	1.54907100000E-19
7.51900000000E+02	7.80735200000E-18	1.03232700000E-19
7.59200000000E+02	5.14845800000E-18	6.81687200000E-20
7.66500000000E+02	3.35785800000E-18	4.45163300000E-20
7.73800000000E+02	2.16159100000E-18	2.86901900000E-20
7.81100000000E+02	1.37062700000E-18	1.82111000000E-20
7.88400000000E+02	8.54331700000E-19	1.13620300000E-20
7.95700000000E+02	5.22468200000E-19	6.95440500000E-21
8.03000000000E+02	3.12921900000E-19	4.16838500000E-21
8.10300000000E+02	1.83245100000E-19	2.44264500000E-21
8.17600000000E+02	1.04759200000E-19	1.39728200000E-21
8.24900000000E+02	5.83880600000E-20	7.79203100000E-22
8.32200000000E+02	3.16883800000E-20	4.23093100000E-22
8.39500000000E+02	1.67283200000E-20	2.23447200000E-22
8.46800000000E+02	8.58159300000E-21	1.14671900000E-22
8.54100000000E+02	4.27448000000E-21	5.71375200000E-23
8.61400000000E+02	2.06575600000E-21	2.76217200000E-23
8.68700000000E+02	9.67998900000E-22	1.29469200000E-23
TITLE = "Profiles along polylines"
VARIABLES = "DIST" "PCE-l (AS)" "PCE-h (AS)" 
ZONE T="TIME=6.307200000000e+008"
0.00000000000E+00	9.89217600000E-01	1.07823600000E-02
7.30000000000E+00	6.75436000000E-01	7.37611000000E-03
1.46000000000E+01	4.61186500000E-01	5.04592500000E-03
2.19000000000E+01	3.14897300000E-01	3.45186800000E-03
2.92000000000E+01	2.15011300000E-01	2.36139000000E-03
3.65000000000E+01	1.46809300000E-01	1.61540400000E-03
4.38000000000E+01	1.00241100000E-01	1.10508200000E-03
5.11000000000E+01	6.84444600000E-02	7.55975900000E-04
5.84000000000E+01	4.67337500000E-02	5.17155700000E-04
6.57000000000E+01	3.19097200000E-02	3.53781200000E-04
7.30000000000E+01	2.17879000000E-02	2.42018300000E-04
8.03000000000E+01	1.48767400000E-02	1.65562400000E-04
8.76000000000E+01	1.01578100000E-02	1.13259600000E-04
9.49000000000E+01	6.93573300000E-03	7.74797900000E-05
1.02200000000E+02	4.73570600000E-03	5.30031700000E-05
1.09500000000E+02	3.23353100000E-03	3.62589600000E-05
1.16800000000E+02	2.20784900000E-03	2.48044000000E-05
1.24100000000E+02	1.50751500000E-03	1.69684500000E-05
1.31400000000E+02	1.02932900000E-03	1.16079500000E-05
1.38700000000E+02	7.02823800000E-04	7.94088700000E-06
1.46000000000E+02	4.79886800000E-04	5.43228300000E-06
1.53300000000E+02	3.27665800000E-04	3.71617200000E-06
1.60600000000E+02	2.23729600000E-04	2.54219700000E-06
1.67900000000E+02	1.52762200000E-04	1.73909200000E-06
1.75200000000E+02	1.04305700000E-04	1.18969600000E-06
1.82500000000E+02	7.12197600000E-05	8.13859700000E-07
1.89800000000E+02	4.86287200000E-05	5.56753500000E-07
1.97100000000E+02	3.32036000000E-05	3.80869700000E-07
2.04400000000E+02	2.26713600000E-05	2.60549200000E-07
2.11700000000E+02	1.54799600000E-05	1.78239200000E-07
2.19000000000E+02	1.05696900000E-05	1.21931700000E-07
2.26300000000E+02	7.21696500000E-06	8.34122900000E-08
2.33600000000E+02	4.92773100000E-06	5.70615400000E-08
2.40900000000E+02	3.36464500000E-06	3.90352400000E-08
2.48200000000E+02	2.29737400000E-06	2.67036300000E-08
2.55500000000E+02	1.56864300000E-06	1.82676900000E-08
2.62800000000E+02	1.07106600000E-06	1.24967500000E-08
2.70100000000E+02	7.31322100000E-07	8.54890700000E-09
2.77400000000E+02	4.99345400000E-07	5.84822400000E-09
2.84700000000E+02	3.40952100000E-07	4.00071300000E-09
2.92000000000E+02	2.32801500000E-07	2.73684900000E-09
2.99300000000E+02	1.58956400000E-07	1.87225200000E-09
3.06600000000E+02	1.08535200000E-07	1.28078900000E-09
3.13900000000E+02	7.41076000000E-08	8.76175500000E-10
3.21200000000E+02	5.06005400000E-08	5.99383200000E-10
3.28500000000E+02	3.45499500000E-08	4.10032200000E-10
3.35800000000E+02	2.35906400000E-08	2.80499000000E-10
3.43100000000E+02	1.61076500000E-08	1.91886700000E-10
3.50400000000E+02	1.09982700000E-08	1.31267800000E-10
3.57700000000E+02	7.50960100000E-09	8.97990300000E-11
3.65000000000E+02	5.12754200000E-09	6.14306500000E-11
3.72300000000E+02	3.50107600000E-09	4.20241100000E-11
3.79600000000E+02	2.39052800000E-09	2.87482800000E-11
3.86900000000E+02	1.63224800000E-09	1.96664200000E-11
3.94200000000E+02	1.11449600000E-09	1.34536100000E-11
4.01500000000E+02	7.60975900000E-10	9.20348300000E-12
4.08800000000E+02	5.19593000000E-10	6.29601300000E-12
4.16100000000E+02	3.54777100000E-10	4.30704100000E-12
4.23400000000E+02	2.42241200000E-10	2.94640500000E-12
4.30700000000E+02	1.65401800000E-10	2.01560700000E-12
4.38000000000E+02	1.12936100000E-10	1.37885700000E-12
4.45300000000E+02	7.71125400000E-11	9.43262800000E-13
4.52600000000E+02	5.26523000000E-11	6.45276900000E-13
4.59900000000E+02	3.59508900000E-11	4.41427700000E-13
4.67200000000E+02	2.45472100000E-11	3.01976400000E-13
4.74500000000E+02	1.67607900000E-11	2.06579100000E-13
4.81800000000E+02	1.14442300000E-11	1.41318800000E-13
4.89100000000E+02	7.81410200000E-12	9.66748000000E-14
4.96400000000E+02	5.33545500000E-12	6.61342900000E-14
5.03700000000E+02	3.64303900000E-12	4.52418200000E-14
5.11000000000E+02	2.48746000000E-12	3.09494900000E-14
5.18300000000E+02	1.69843300000E-12	2.11722500000E-14
5.25600000000E+02	1.15968700000E-12	1.44837300000E-14
5.32900000000E+02	7.91832200000E-13	9.90817800000E-15
5.40200000000E+02	5.40661600000E-13	6.77808800000E-15
5.47500000000E+02	3.69162700000E-13	4.63682400000E-15
5.54800000000E+02	2.52063600000E-13	3.17200600000E-15
5.62100000000E+02	1.72108600000E-13	2.16993900000E-15
5.69400000000E+02	1.17515400000E-13	1.48443400000E-15
5.76700000000E+02	8.02393200000E-14	1.01548700000E-15
5.84000000000E+02	5.47872600000E-14	6.94684700000E-16
5.91300000000E+02	3.74086400000E-14	4.75227100000E-16
5.98600000000E+02	2.55425500000E-14	3.25098200000E-16
6.05900000000E+02	1.74404100000E-14	2.22396500000E-16
6.13200000000E+02	1.19082800000E-14	1.52139300000E-16
6.20500000000E+02	8.13094600000E-15	1.04077000000E-16
6.27800000000E+02	5.55178900000E-15	7.11979600000E-17
6.35100000000E+02	3.79074200000E-15	4.87057000000E-17
6.42400000000E+02	2.58829700000E-15	3.33189000000E-17
6.49700000000E+02	1.76726100000E-15	2.27928200000E-17
6.57000000000E+02	1.20664800000E-15	1.55918900000E-17
6.64300000000E+02	8.23847200000E-16	1.06656300000E-17
6.71600000000E+02	5.62465600000E-16	7.29547500000E-18
6.78900000000E+02	3.83967600000E-16	4.98964900000E-18
6.86200000000E+02	2.62065500000E-16	3.41193300000E-18
6.93500000000E+02	1.78805000000E-16	2.33228500000E-18
7.00800000000E+02	1.21928600000E-16	1.59335500000E-18
7.08100000000E+02	8.30687600000E-17	1.08752700000E-18
7.15400000000E+02	5.65143700000E-17	7.41213200000E-19
7.22700000000E+02	3.83678600000E-17	5.04098900000E-19
7.30000000000E+02	2.59695700000E-17	3.41785200000E-19
7.37300000000E+02	1.75043000000E-17	2.30751400000E-19
7.44600000000E+02	1.17326200000E-17	1.54907100000E-19
7.51900000000E+02	7.80735200000E-18	1.03232700000E-19
7.59200000000E+02	5.14845800000E-18	6.81687200000E-20
7.66500000000E+02	3.35785800000E-18	4.45163300000E-20
7.73800000000E+02	2.16159100000E-18	2.86901900000E-20
7.81100000000E+02	1.37062700000E-18	1.82111000000E-20
7.88400000000E+02	8.54331700000E-19	1.13620300000E-20
7.95700000000E+02	5.22468200000E-19	6.95440500000E-21
8.03000000000E+02	3.12921900000E-19	4.16838500000E-21
8.10300000000E+02	1.83245100000E-19	2.44264500000E-21
8.17600000000E+02	1.04759200000E-19	1.39728200000E-21
8.24900000000E+02	5.83880600000E-20	7.79203100000E-22
8.32200000000E+02	3.16883800000E-20	4.23093100000E-22
8.39500000000E+02	1.67283200000E-20	2.23447200000E-22
8.46800000000E+02	8.58159300000E-21	1.14671900000E-22
8.54100000000E+02	4.27448000000E-21	5.71375200000E-23
8.61400000000E+02	2.06575600000E-21	2.76217200000E-23
8.68700000000E+02	9.67998900000E-22	1.29469200000E-23
