TITLE = "Profiles along polylines"
VARIABLES = "DIST" "HEAD" "PCE-l" "PCE-h" "TCE-l" "TCE-h" "DCE-l" "DCE-h" "VC-l" "VC-h" "Eth-l" "Eth-h" "Micros" "Tracer" "d13PCE" "d13TCE" "d13DCE" "d13VC" "d13Eth" 
ZONE T="TIME=0.000000000000e+000"
3.650000000E+00	1.000000000E+00	6.888469990E-01	7.521900678E-03	2.668293774E-01	2.899179193E-03	3.099316381E-02	3.342857831E-04	2.427387590E-03	2.574702458E-05	1.207103736E-04	1.250763698E-06	1.000000000E+00	1.000000000E-06	-2.83E+01	-3.31E+01	-4.02E+01	-5.61E+01	-7.79E+01
1.095000000E+01	1.000000000E+00	4.437377764E-01	4.855668231E-03	4.228660294E-01	4.604486510E-03	1.072569296E-01	1.159321854E-03	1.437940155E-02	1.527498720E-04	9.775022646E-04	1.013698703E-05	1.000000000E+00	1.000000000E-06	-2.62E+01	-3.10E+01	-3.81E+01	-5.47E+01	-7.71E+01
1.825000000E+01	1.000000000E+00	3.002907120E-01	3.292442397E-03	4.750873258E-01	5.181779304E-03	1.773853200E-01	1.920985319E-03	3.339131954E-02	3.553518993E-04	3.062963476E-03	3.180455070E-05	1.000000000E+00	1.000000000E-06	-2.43E+01	-2.94E+01	-3.63E+01	-5.29E+01	-7.59E+01
2.555000000E+01	1.000000000E+00	2.054465931E-01	2.256771432E-03	4.758281103E-01	5.198683273E-03	2.411716859E-01	2.616860857E-03	5.971492490E-02	6.366779464E-04	7.056328773E-03	7.336998533E-05	1.000000000E+00	1.000000000E-06	-2.25E+01	-2.77E+01	-3.44E+01	-5.12E+01	-7.47E+01
3.285000000E+01	1.000000000E+00	1.402252864E-01	1.543255459E-03	4.502079167E-01	4.927093335E-03	2.937993003E-01	3.194178357E-03	9.153013041E-02	9.777409442E-04	1.345501020E-02	1.400954109E-04	1.000000000E+00	1.000000000E-06	-2.06E+01	-2.61E+01	-3.25E+01	-4.94E+01	-7.34E+01
4.015000000E+01	1.000000000E+00	9.575833225E-02	1.055864807E-03	4.107735495E-01	4.503105746E-03	3.333383639E-01	3.631227760E-03	1.267537825E-01	1.356592593E-03	2.259361626E-02	2.355726037E-04	1.000000000E+00	1.000000000E-06	-1.87E+01	-2.44E+01	-3.06E+01	-4.76E+01	-7.21E+01
4.745000000E+01	1.000000000E+00	6.538506329E-02	7.223225579E-04	3.657932973E-01	4.016746413E-03	3.599909553E-01	3.929380176E-03	1.634048403E-01	1.752209083E-03	3.464348932E-02	3.617052918E-04	1.000000000E+00	1.000000000E-06	-1.69E+01	-2.28E+01	-2.86E+01	-4.57E+01	-7.09E+01
5.475000000E+01	1.000000000E+00	4.464686591E-02	4.941563079E-04	3.201731971E-01	3.521677749E-03	3.749946520E-01	4.101340775E-03	1.997728235E-01	2.146310132E-03	4.963010840E-02	5.188785737E-04	1.000000000E+00	1.000000000E-06	-1.50E+01	-2.12E+01	-2.67E+01	-4.39E+01	-6.96E+01
6.205000000E+01	1.000000000E+00	3.048604867E-02	3.380611593E-04	2.767218025E-01	3.048814483E-03	3.800651993E-01	4.165153177E-03	2.344858435E-01	2.524117944E-03	6.745875307E-02	7.062167734E-04	1.000000000E+00	1.000000000E-06	-1.32E+01	-1.95E+01	-2.47E+01	-4.21E+01	-6.84E+01
6.935000000E+01	1.000000000E+00	2.081669553E-02	2.312739361E-04	2.369004202E-01	2.614409134E-03	3.770425216E-01	4.140367595E-03	2.665158149E-01	2.874447720E-03	8.794219489E-02	9.218651541E-04	1.000000000E+00	1.000000000E-06	-1.13E+01	-1.79E+01	-2.28E+01	-4.02E+01	-6.71E+01
7.665000000E+01	1.000000000E+00	1.421419731E-02	1.582187711E-04	2.013315094E-01	2.225547322E-03	3.676939641E-01	4.045891823E-03	2.951509552E-01	3.189445666E-03	1.108270215E-01	1.163259962E-03	1.000000000E+00	1.000000000E-06	-9.43E+00	-1.63E+01	-2.08E+01	-3.83E+01	-6.59E+01
8.395000000E+01	1.000000000E+00	9.705835061E-03	1.082403878E-04	1.701301449E-01	1.883740793E-03	3.536120493E-01	3.898858221E-03	3.199527340E-01	3.464155544E-03	1.358168844E-01	1.427368600E-03	1.000000000E+00	1.000000000E-06	-7.56E+00	-1.47E+01	-1.88E+01	-3.65E+01	-6.47E+01
9.125000000E+01	1.000000000E+00	6.627404366E-03	7.404925060E-05	1.431191292E-01	1.587266830E-03	3.361712240E-01	3.714128410E-03	3.407078946E-01	3.696026609E-03	1.625919954E-01	1.710892445E-03	1.000000000E+00	1.000000000E-06	-5.68E+00	-1.30E+01	-1.68E+01	-3.46E+01	-6.36E+01
9.855000000E+01	1.000000000E+00	4.525369389E-03	5.065846176E-05	1.199663816E-01	1.332668018E-03	3.165195404E-01	3.504178520E-03	3.573815538E-01	3.884427448E-03	1.908248025E-01	2.010431098E-03	1.000000000E+00	1.000000000E-06	-3.80E+00	-1.14E+01	-1.48E+01	-3.27E+01	-6.24E+01
1.058500000E+02	1.000000000E+00	3.090043546E-03	3.465639051E-05	1.002709458E-01	1.115695393E-03	2.955899965E-01	3.279200971E-03	3.700745576E-01	4.030200378E-03	2.201921043E-01	2.322610414E-03	1.000000000E+00	1.000000000E-06	-1.91E+00	-9.81E+00	-1.27E+01	-3.09E+01	-6.13E+01
1.131500000E+02	1.000000000E+00	2.109964572E-03	2.370907758E-05	8.361527385E-02	9.318851360E-04	2.741218813E-01	3.047318598E-03	3.789865007E-01	4.135272382E-03	2.503840273E-01	2.644178352E-03	1.000000000E+00	1.000000000E-06	-2.51E-02	-8.19E+00	-1.07E+01	-2.90E+01	-6.02E+01
1.204500000E+02	1.000000000E+00	1.440740376E-03	1.621981838E-05	6.959560842E-02	7.768964547E-04	2.526861878E-01	2.814846633E-03	3.843847709E-01	4.202327279E-03	2.811103403E-01	2.972073362E-03	1.000000000E+00	1.000000000E-06	1.87E+00	-6.58E+00	-8.66E+00	-2.71E+01	-5.91E+01
1.277500000E+02	1.000000000E+00	9.837761551E-04	1.109627770E-05	5.783833942E-02	6.466959056E-04	2.317115734E-01	2.586563951E-03	3.865793770E-01	4.234537368E-03	3.121045818E-01	3.303470045E-03	1.000000000E+00	1.000000000E-06	3.76E+00	-4.98E+00	-6.60E+00	-2.52E+01	-5.81E+01
1.350500000E+02	1.000000000E+00	6.717487365E-04	7.591168803E-06	4.800755045E-02	5.376447923E-04	2.115088952E-01	2.365971685E-03	3.859030165E-01	4.235349387E-03	3.431264369E-01	3.635806514E-03	1.000000000E+00	1.000000000E-06	5.66E+00	-3.37E+00	-4.52E+00	-2.33E+01	-5.70E+01
1.423500000E+02	1.000000000E+00	4.586880475E-04	5.193258964E-06	3.980718249E-02	4.465269627E-04	1.922933258E-01	2.155527885E-03	3.826957006E-01	4.208318061E-03	3.739627510E-01	3.966797379E-03	1.000000000E+00	1.000000000E-06	7.56E+00	-1.76E+00	-2.44E+00	-2.14E+01	-5.60E+01
1.496500000E+02	1.000000000E+00	3.132044956E-04	3.552804486E-06	3.298004422E-02	3.705413821E-04	1.742036555E-01	1.956853480E-03	3.772932347E-01	4.156980150E-03	4.044275090E-01	4.294435731E-03	1.000000000E+00	1.000000000E-06	9.47E+00	-1.49E-01	-3.44E-01	-1.95E+01	-5.50E+01
1.569500000E+02	1.000000000E+00	2.138644259E-04	2.430539241E-06	2.730510036E-02	3.072751939E-04	1.573187442E-01	1.770908700E-03	3.700188823E-01	4.084762148E-03	4.343610566E-01	4.616986967E-03	1.000000000E+00	1.000000000E-06	1.14E+01	1.46E+00	1.76E+00	-1.76E+01	-5.41E+01
1.642500000E+02	1.000000000E+00	1.460323633E-04	1.662776836E-06	2.259393983E-02	2.546672214E-04	1.416712843E-01	1.598141373E-03	3.611776054E-01	3.994915406E-03	4.636287861E-01	4.932976771E-03	1.000000000E+00	1.000000000E-06	1.33E+01	3.07E+00	3.88E+00	-1.57E+01	-5.31E+01
1.715500000E+02	1.000000000E+00	9.971481242E-05	1.137536379E-06	1.868697743E-02	2.109680651E-04	1.272591359E-01	1.438609642E-03	3.510523526E-01	3.890473172E-03	4.921194671E-01	5.241175132E-03	1.000000000E+00	1.000000000E-06	1.52E+01	4.68E+00	6.01E+00	-1.38E+01	-5.22E+01
1.788500000E+02	1.000000000E+00	6.808794705E-05	7.782096698E-07	1.544971599E-02	1.747004593E-04	1.140545373E-01	1.292082148E-03	3.399019425E-01	3.774224856E-03	5.197433642E-01	5.540577874E-03	1.000000000E+00	1.000000000E-06	1.71E+01	6.29E+00	8.15E+00	-1.18E+01	-5.13E+01
1.861500000E+02	1.000000000E+00	4.649227552E-05	5.323876243E-07	1.276924963E-02	1.446219474E-04	1.020114925E-01	1.158118802E-03	3.279601669E-01	3.648703566E-03	5.464302466E-01	5.830386844E-03	1.000000000E+00	1.000000000E-06	1.91E+01	7.90E+00	1.03E+01	-9.93E+00	-5.05E+01
1.934500000E+02	1.000000000E+00	3.174617209E-05	3.642162179E-07	1.055109668E-02	1.196909133E-04	9.107162383E-02	1.036135112E-03	3.154358049E-01	3.516183662E-03	5.721273763E-01	6.109989644E-03	1.000000000E+00	1.000000000E-06	2.10E+01	9.52E+00	1.25E+01	-8.00E+00	-4.96E+01
2.007500000E+02	1.000000000E+00	2.167713741E-05	2.491670498E-07	8.716393987E-03	9.903637053E-05	8.116874947E-02	9.254527940E-04	3.025132971E-01	3.378685667E-03	5.967975302E-01	6.378939549E-03	1.000000000E+00	1.000000000E-06	2.29E+01	1.11E+01	1.46E+01	-6.08E+00	-4.88E+01
2.080500000E+02	1.000000000E+00	1.480173054E-05	1.704597859E-07	7.199450209E-03	8.193153196E-05	7.223241170E-02	8.253390597E-04	2.893538819E-01	3.237986415E-03	6.204171023E-01	6.636936081E-03	1.000000000E+00	1.000000000E-06	2.48E+01	1.27E+01	1.68E+01	-4.15E+00	-4.80E+01
2.153500000E+02	1.000000000E+00	1.010701842E-05	1.166146914E-07	5.945637149E-03	6.777096508E-05	6.419055402E-02	7.350366492E-04	2.760970367E-01	3.095632754E-03	6.429743130E-01	6.883806565E-03	1.000000000E+00	1.000000000E-06	2.68E+01	1.44E+01	1.90E+01	-2.21E+00	-4.72E+01
2.226500000E+02	1.000000000E+00	6.901343123E-06	7.977826664E-08	4.909588332E-03	5.605102582E-05	5.697151202E-02	6.537863902E-04	2.628621022E-01	2.952957478E-03	6.644675440E-01	7.119488875E-03	1.000000000E+00	1.000000000E-06	2.87E+01	1.60E+01	2.12E+01	-2.79E-01	-4.65E+01
2.299500000E+02	1.000000000E+00	4.712422048E-06	5.457778681E-08	4.053670605E-03	4.635321854E-05	5.050545731E-02	5.808437586E-04	2.497499990E-01	2.811096491E-03	6.849038086E-01	7.344015502E-03	1.000000000E+00	1.000000000E-06	3.07E+01	1.76E+01	2.35E+01	1.66E+00	-4.58E+01
2.372500000E+02	1.000000000E+00	3.217768059E-06	3.733767260E-08	3.346694286E-03	3.833012208E-05	4.472540941E-02	5.154906785E-04	2.368449646E-01	2.671006426E-03	7.042973618E-01	7.557498983E-03	1.000000000E+00	1.000000000E-06	3.26E+01	1.92E+01	2.57E+01	3.60E+00	-4.51E+01
2.445500000E+02	1.000000000E+00	2.197178259E-06	2.554339184E-08	2.762829209E-03	3.169353785E-05	3.956790994E-02	4.570435790E-04	2.242162633E-01	2.533482164E-03	7.226684482E-01	7.760118723E-03	1.000000000E+00	1.000000000E-06	3.46E+01	2.09E+01	2.79E+01	5.54E+00	-4.44E+01
2.518500000E+02	1.000000000E+00	1.500292194E-06	1.747470641E-08	2.280696883E-03	2.620454362E-05	3.497343582E-02	4.048585373E-04	2.119198307E-01	2.399173833E-03	7.400421842E-01	7.952109159E-03	1.000000000E+00	1.000000000E-06	3.65E+01	2.25E+01	3.02E+01	7.49E+00	-4.37E+01
2.591500000E+02	1.000000000E+00	1.041287693E-06	1.215071775E-08	1.882598210E-03	2.166500703E-05	3.088661073E-02	3.583341514E-04	1.999998300E-01	2.268603023E-03	7.564475677E-01	8.133749215E-03	1.000000000E+00	1.000000000E-06	3.84E+01	2.41E+01	3.24E+01	9.44E+00	-4.31E+01
2.664500000E+02	1.000000000E+00	9.878463379E-07	1.153020028E-08	1.553697374E-03	1.790849372E-05	2.725625152E-02	3.169125362E-04	1.884901035E-01	2.142177993E-03	7.719166077E-01	8.305352995E-03	1.000000000E+00	1.000000000E-06	3.87E+01	2.58E+01	3.47E+01	1.14E+01	-4.25E+01
2.737500000E+02	1.000000000E+00	9.883216718E-07	1.153573093E-08	1.282220695E-03	1.480289749E-05	2.403536172E-02	2.800797128E-04	1.774155125E-01	2.020207807E-03	7.864835647E-01	8.467261595E-03	1.000000000E+00	1.000000000E-06	3.87E+01	2.74E+01	3.70E+01	1.33E+01	-4.19E+01
2.810500000E+02	1.000000000E+00	9.880723709E-07	1.153283445E-08	1.058179372E-03	1.223586186E-05	2.118101924E-02	2.473647717E-04	1.667931684E-01	1.902915393E-03	8.001842928E-01	8.619835989E-03	1.000000000E+00	1.000000000E-06	3.87E+01	2.90E+01	3.93E+01	1.53E+01	-4.14E+01
2.883500000E+02	1.000000000E+00	9.881763593E-07	1.153404216E-08	8.732844275E-04	1.011398519E-05	1.865415741E-02	2.183377825E-04	1.566335425E-01	1.790449381E-03	8.130556754E-01	8.763450865E-03	1.000000000E+00	1.000000000E-06	3.87E+01	3.07E+01	4.16E+01	1.72E+01	-4.08E+01
2.956500000E+02	1.000000000E+00	9.881396755E-07	1.153361617E-08	7.206960979E-04	8.360073434E-06	1.641935620E-02	1.926077929E-04	1.469414646E-01	1.682894806E-03	8.251351428E-01	8.898489342E-03	1.000000000E+00	1.000000000E-06	3.87E+01	3.23E+01	4.39E+01	1.92E+01	-4.03E+01
3.029500000E+02	1.000000000E+00	9.881506184E-07	1.153374324E-08	5.947694028E-04	6.910315308E-06	1.444460920E-02	1.698205173E-04	1.377170151E-01	1.580282719E-03	8.364602661E-01	9.025338463E-03	1.000000000E+00	1.000000000E-06	3.87E+01	3.39E+01	4.62E+01	2.12E+01	-3.98E+01
3.102500000E+02	1.000000000E+00	9.881480440E-07	1.153371335E-08	4.908457857E-04	5.711966291E-06	1.270108071E-02	1.496558798E-04	1.289563170E-01	1.482598771E-03	8.470684163E-01	9.144385397E-03	1.000000000E+00	1.000000000E-06	3.87E+01	3.56E+01	4.86E+01	2.31E+01	-3.93E+01
3.175500000E+02	1.000000000E+00	9.881483703E-07	1.153371714E-08	4.050806662E-04	4.721428407E-06	1.116285989E-02	1.318254897E-04	1.206522361E-01	1.389790831E-03	8.569964831E-01	9.256014265E-03	1.000000000E+00	1.000000000E-06	3.87E+01	3.72E+01	5.09E+01	2.51E+01	-3.88E+01
3.248500000E+02	1.000000000E+00	9.881484720E-07	1.153371832E-08	3.343012218E-04	3.902664166E-06	9.806718809E-03	1.160701298E-04	1.127949944E-01	1.301775707E-03	8.662806453E-01	9.360603512E-03	1.000000000E+00	1.000000000E-06	3.87E+01	3.89E+01	5.33E+01	2.71E+01	-3.84E+01
3.321500000E+02	1.000000000E+00	9.881483678E-07	1.153371711E-08	2.758890174E-04	3.225885535E-06	8.611878420E-03	1.021573067E-04	1.053727065E-01	1.218445046E-03	8.749561859E-01	9.458523776E-03	1.000000000E+00	1.000000000E-06	3.87E+01	4.06E+01	5.57E+01	2.90E+01	-3.80E+01
3.394500000E+02	1.000000000E+00	9.881484220E-07	1.153371774E-08	2.276831341E-04	2.666470145E-06	7.559785598E-03	8.987889885E-05	9.837184396E-02	1.139670478E-03	8.830573471E-01	9.550136167E-03	1.000000000E+00	1.000000000E-06	3.87E+01	4.22E+01	5.80E+01	3.10E+01	-3.76E+01
3.467500000E+02	1.000000000E+00	9.881483999E-07	1.153371748E-08	1.879002290E-04	2.204065506E-06	6.633903023E-03	7.904892683E-05	9.177763700E-02	1.065308090E-03	8.906172195E-01	9.635790932E-03	1.000000000E+00	1.000000000E-06	3.87E+01	4.39E+01	6.04E+01	3.30E+01	-3.72E+01
3.540500000E+02	1.000000000E+00	9.881484075E-07	1.153371757E-08	1.550685614E-04	1.821848545E-06	5.819513022E-03	6.950146016E-05	8.557441805E-02	9.952022806E-04	8.976676601E-01	9.715826425E-03	1.000000000E+00	1.000000000E-06	3.87E+01	4.55E+01	6.28E+01	3.49E+01	-3.68E+01
3.613500000E+02	1.000000000E+00	9.881484053E-07	1.153371754E-08	1.279735468E-04	1.505913555E-06	5.103535821E-03	6.108866855E-05	7.974591495E-02	9.291890701E-04	9.042392354E-01	9.790568362E-03	1.000000000E+00	1.000000000E-06	3.87E+01	4.72E+01	6.52E+01	3.69E+01	-3.65E+01
3.686500000E+02	1.000000000E+00	9.881484058E-07	1.153371755E-08	1.056128239E-04	1.244766280E-06	4.474362211E-03	5.367901969E-05	7.427549885E-02	8.670989222E-04	9.103611859E-01	9.860329306E-03	1.000000000E+00	1.000000000E-06	3.87E+01	4.89E+01	6.76E+01	3.89E+01	-3.61E+01
3.759500000E+02	1.000000000E+00	9.881484058E-07	1.153371755E-08	8.715917354E-05	1.028905733E-06	3.921700326E-03	4.715562217E-05	6.914639233E-02	8.087591337E-04	9.160614079E-01	9.925408352E-03	1.000000000E+00	1.000000000E-06	3.87E+01	5.05E+01	7.01E+01	4.09E+01	-3.58E+01
3.832500000E+02	1.000000000E+00	9.881484057E-07	1.153371755E-08	7.192991582E-05	8.504785400E-07	3.436435989E-03	4.141470943E-05	6.434184250E-02	7.539958430E-04	9.213664513E-01	9.986090983E-03	1.000000000E+00	1.000000000E-06	3.87E+01	5.22E+01	7.25E+01	4.29E+01	-3.55E+01
3.905500000E+02	1.000000000E+00	9.881484058E-07	1.153371755E-08	5.936165500E-05	7.029932126E-07	3.010505932E-03	3.636425845E-05	5.984526369E-02	7.026357019E-04	9.263015285E-01	1.004264906E-02	1.000000000E+00	1.000000000E-06	3.87E+01	5.39E+01	7.49E+01	4.48E+01	-3.52E+01
3.978500000E+02	1.000000000E+00	9.881484058E-07	1.153371755E-08	4.898943707E-05	5.810839824E-07	2.636783122E-03	3.192273603E-05	5.564035342E-02	6.545072556E-04	9.308905338E-01	1.009534094E-02	1.000000000E+00	1.000000000E-06	3.87E+01	5.56E+01	7.74E+01	4.68E+01	-3.49E+01
4.051500000E+02	1.000000000E+00	9.881484058E-07	1.153371755E-08	4.042954908E-05	4.803155828E-07	2.308973333E-03	2.801796436E-05	5.171118546E-02	6.094420664E-04	9.351560714E-01	1.014441167E-02	1.000000000E+00	1.000000000E-06	3.87E+01	5.72E+01	7.99E+01	4.88E+01	-3.46E+01
4.124500000E+02	1.000000000E+00	9.881484058E-07	1.153371755E-08	3.336532397E-05	3.970218868E-07	2.021522145E-03	2.458609773E-05	4.804228294E-02	5.672756151E-04	9.391194893E-01	1.019009328E-02	1.000000000E+00	1.000000000E-06	3.87E+01	5.89E+01	8.23E+01	5.08E+01	-3.44E+01
4.197500000E+02	1.000000000E+00	9.881484058E-07	1.153371755E-08	2.753542567E-05	3.281725271E-07	1.769531498E-03	2.157070152E-05	4.461867449E-02	5.278480121E-04	9.428009183E-01	1.023260513E-02	1.000000000E+00	1.000000000E-06	3.87E+01	6.06E+01	8.48E+01	5.28E+01	-3.41E+01
4.270500000E+02	1.000000000E+00	9.881484058E-07	1.153371755E-08	2.272418117E-05	2.712626460E-07	1.548685002E-03	1.892192544E-05	4.142593583E-02	4.910045432E-04	9.462193147E-01	1.027215428E-02	1.000000000E+00	1.000000000E-06	3.87E+01	6.23E+01	8.73E+01	5.48E+01	-3.39E+01
4.343500000E+02	1.000000000E+00	9.881484058E-07	1.153371755E-08	1.875360186E-05	2.242217646E-07	1.355181199E-03	1.659576267E-05	3.845021896E-02	4.565960745E-04	9.493925060E-01	1.030893595E-02	1.000000000E+00	1.000000000E-06	3.87E+01	6.40E+01	8.98E+01	5.68E+01	-3.37E+01
4.416500000E+02	1.000000000E+00	9.881484058E-07	1.153371755E-08	1.547679892E-05	1.853384550E-07	1.185674049E-03	1.455338726E-05	3.567827100E-02	4.244793378E-04	9.523372379E-01	1.034313395E-02	1.000000000E+00	1.000000000E-06	3.87E+01	6.57E+01	9.23E+01	5.88E+01	-3.35E+01
4.489500000E+02	1.000000000E+00	9.881484058E-07	1.153371755E-08	1.277254933E-05	1.531980759E-07	1.037219934E-03	1.276056259E-05	3.309744425E-02	3.945171150E-04	9.550692230E-01	1.037492114E-02	1.000000000E+00	1.000000000E-06	3.87E+01	6.74E+01	9.48E+01	6.08E+01	-3.33E+01
4.562500000E+02	1.000000000E+00	9.881484058E-07	1.153371755E-08	1.054081126E-05	1.266313052E-07	9.072305419E-04	1.118711387E-05	3.069569907E-02	3.665783367E-04	9.576031893E-01	1.040445993E-02	1.000000000E+00	1.000000000E-06	3.87E+01	6.91E+01	9.74E+01	6.28E+01	-3.31E+01
4.635500000E+02	1.000000000E+00	9.881484058E-07	1.153371755E-08	8.699023132E-06	1.046715982E-07	7.934310281E-04	9.806458638E-06	2.846160064E-02	3.405381107E-04	9.599529291E-01	1.043190277E-02	1.000000000E+00	1.000000000E-06	3.87E+01	7.08E+01	9.99E+01	6.48E+01	-3.29E+01
4.708500000E+02	1.000000000E+00	9.881484058E-07	1.153371755E-08	7.179049274E-06	8.652002330E-08	6.938229087E-04	8.595189166E-06	2.638431101E-02	3.162776910E-04	9.621313468E-01	1.045739261E-02	1.000000000E+00	1.000000000E-06	3.87E+01	7.25E+01	1.02E+02	6.68E+01	-3.28E+01
4.781500000E+02	1.000000000E+00	9.881484058E-07	1.153371755E-08	5.924659322E-06	7.151619503E-08	6.066511921E-04	7.532701619E-06	2.445357715E-02	2.936843996E-04	9.641505067E-01	1.048106340E-02	1.000000000E+00	9.999999999E-07	3.87E+01	7.42E+01	1.05E+02	6.88E+01	-3.26E+01
4.854500000E+02	1.000000000E+00	9.881484058E-07	1.153371755E-08	4.889447995E-06	5.911424843E-08	5.303752885E-04	6.600867007E-06	2.265971584E-02	2.726515095E-04	9.660216789E-01	1.050304052E-02	1.000000000E+00	9.999999997E-07	3.87E+01	7.59E+01	1.08E+02	7.08E+01	-3.24E+01
4.927500000E+02	1.000000000E+00	9.881484058E-07	1.153371755E-08	4.035118374E-06	4.886297944E-08	4.636432904E-04	5.783739521E-06	2.099359633E-02	2.530780962E-04	9.677553841E-01	1.052344131E-02	1.000000000E+00	9.999999991E-07	3.87E+01	7.76E+01	1.10E+02	7.28E+01	-3.23E+01
5.000500000E+02	1.000000000E+00	9.881484058E-07	1.153371755E-08	3.330065135E-06	4.038942934E-08	4.052692521E-04	5.067298220E-06	1.944662099E-02	2.348688661E-04	9.693614366E-01	1.054237543E-02	1.000000000E+00	9.999999971E-07	3.87E+01	7.94E+01	1.13E+02	7.48E+01	-3.22E+01
5.073500000E+02	1.000000000E+00	9.881484058E-07	1.153371755E-08	2.748205325E-06	3.338531586E-08	3.542131346E-04	4.439218466E-06	1.801070487E-02	2.179339663E-04	9.708489849E-01	1.055994535E-02	1.000000000E+00	9.999999912E-07	3.87E+01	8.11E+01	1.15E+02	7.68E+01	-3.20E+01
5.146500000E+02	1.000000000E+00	9.881484058E-07	1.153371755E-08	2.268013448E-06	2.759581735E-08	3.095631163E-04	3.888669804E-06	1.667825417E-02	2.021887812E-04	9.722265490E-01	1.057624669E-02	1.000000000E+00	9.999999742E-07	3.87E+01	8.28E+01	1.18E+02	7.88E+01	-3.19E+01
5.219500000E+02	1.000000000E+00	9.881484060E-07	1.153371755E-08	1.871725140E-06	2.281030194E-08	2.705200012E-04	3.406137377E-06	1.544214437E-02	1.875537200E-04	9.735020512E-01	1.059136856E-02	1.000000000E+00	9.999999268E-07	3.87E+01	8.45E+01	1.21E+02	8.09E+01	-3.18E+01
5.292500000E+02	1.000000000E+00	9.881484066E-07	1.153371756E-08	1.544679995E-06	1.885466438E-08	2.363834835E-04	2.983264221E-06	1.429569803E-02	1.739539984E-04	9.746828345E-01	1.060539373E-02	1.000000000E+00	9.999997987E-07	3.87E+01	8.63E+01	1.23E+02	8.29E+01	-3.17E+01
5.365500000E+02	1.000000000E+00	9.881484086E-07	1.153371758E-08	1.274779204E-06	1.558499179E-08	2.065400566E-04	2.612712089E-06	1.323266255E-02	1.613194173E-04	9.757756534E-01	1.061839853E-02	1.000000000E+00	9.999994653E-07	3.87E+01	8.80E+01	1.26E+02	8.49E+01	-3.16E+01
5.438500000E+02	1.000000000E+00	9.881484146E-07	1.153371765E-08	1.056309151E-06	1.293427396E-08	1.804485319E-04	2.287991879E-06	1.224718774E-02	1.495841350E-04	9.767866086E-01	1.063045214E-02	1.000000000E+00	9.999986266E-07	3.87E+01	8.97E+01	1.28E+02	8.69E+01	-3.15E+01
5.511500000E+02	1.000000000E+00	9.881484314E-07	1.153371783E-08	9.877624001E-07	1.210172315E-08	1.575386550E-04	2.002235462E-06	1.133379805E-02	1.386863740E-04	9.777209617E-01	1.064161453E-02	1.000000000E+00	9.999965896E-07	3.87E+01	9.03E+01	1.31E+02	8.90E+01	-3.14E+01
5.584500000E+02	1.000000000E+00	9.881484755E-07	1.153371832E-08	9.877531530E-07	1.210162835E-08	1.374846854E-04	1.751524666E-06	1.048737340E-02	1.285682262E-04	9.785827154E-01	1.065193189E-02	1.000000000E+00	9.999918132E-07	3.87E+01	9.03E+01	1.34E+02	9.10E+01	-3.13E+01
5.657500000E+02	1.000000000E+00	9.881485828E-07	1.153371950E-08	9.877543261E-07	1.210163972E-08	1.199833451E-04	1.532204880E-06	9.703148356E-03	1.191756756E-04	9.793737456E-01	1.066142717E-02	1.000000000E+00	9.999810004E-07	3.87E+01	9.03E+01	1.36E+02	9.30E+01	-3.12E+01
5.730500000E+02	1.000000000E+00	9.881488256E-07	1.153372216E-08	9.877512913E-07	1.210160305E-08	1.047098198E-04	1.340346880E-06	8.976671168E-03	1.104581380E-04	9.800921223E-01	1.067008179E-02	1.000000000E+00	9.999573716E-07	3.87E+01	9.03E+01	1.39E+02	9.50E+01	-3.12E+01
5.803500000E+02	1.000000000E+00	9.881493373E-07	1.153372768E-08	9.877338412E-07	1.210139039E-08	9.138043481E-05	1.172510931E-06	8.303780481E-03	1.023682065E-04	9.807290407E-01	1.067780218E-02	1.000000000E+00	9.999075326E-07	3.87E+01	9.03E+01	1.42E+02	9.71E+01	-3.11E+01
5.876500000E+02	1.000000000E+00	9.881503394E-07	1.153373833E-08	9.876808726E-07	1.210074563E-08	7.974760331E-05	1.025687640E-06	7.680579408E-03	9.486136085E-05	9.812635123E-01	1.068436191E-02	1.000000000E+00	9.998060763E-07	3.87E+01	9.03E+01	1.45E+02	9.91E+01	-3.10E+01
5.949500000E+02	1.000000000E+00	9.881521614E-07	1.153375718E-08	9.876211428E-07	1.210001722E-08	6.959513481E-05	8.972428342E-07	7.103405781E-03	8.789562422E-05	9.816536808E-01	1.068930709E-02	1.000000000E+00	9.996067696E-07	3.87E+01	9.03E+01	1.47E+02	1.01E+02	-3.10E+01
6.022500000E+02	1.000000000E+00	9.881552312E-07	1.153378772E-08	9.876413456E-07	1.210025629E-08	6.073417065E-05	7.848696591E-07	6.568796566E-03	8.143114243E-05	9.818234330E-01	1.069181046E-02	1.000000000E+00	9.992289782E-07	3.87E+01	9.03E+01	1.50E+02	1.03E+02	-3.09E+01
6.095500000E+02	1.000000000E+00	9.881600071E-07	1.153383223E-08	9.876979254E-07	1.210092972E-08	5.299968904E-05	6.865472862E-07	6.073445040E-03	7.542966725E-05	9.816430566E-01	1.069046060E-02	1.000000000E+00	9.985380662E-07	3.87E+01	9.03E+01	1.53E+02	1.05E+02	-3.08E+01
6.168500000E+02	1.000000000E+00	9.881668209E-07	1.153388880E-08	9.877364252E-07	1.210136842E-08	4.624730600E-05	6.005029123E-07	5.614150088E-03	6.985393561E-05	9.809032928E-01	1.068297916E-02	1.000000000E+00	9.973191119E-07	3.87E+01	9.03E+01	1.56E+02	1.07E+02	-3.08E+01
6.241500000E+02	1.000000000E+00	9.881756035E-07	1.153394600E-08	9.877588312E-07	1.210158283E-08	4.035046844E-05	5.251782982E-07	5.187759551E-03	6.466696959E-05	9.792835115E-01	1.066587413E-02	1.000000000E+00	9.952446760E-07	3.87E+01	9.03E+01	1.58E+02	1.09E+02	-3.07E+01
6.314500000E+02	1.000000000E+00	9.881854374E-07	1.153397449E-08	9.877758035E-07	1.210167875E-08	3.519803512E-05	4.592008577E-07	4.791112995E-03	5.983136602E-05	9.763170378E-01	1.063406191E-02	1.000000000E+00	9.918396897E-07	3.87E+01	9.03E+01	1.61E+02	1.11E+02	-3.07E+01
6.387500000E+02	1.000000000E+00	9.881937948E-07	1.153391343E-08	9.877865605E-07	1.210160770E-08	3.069217362E-05	4.013584858E-07	4.420993741E-03	5.530870222E-05	9.713597704E-01	1.058052538E-02	1.000000000E+00	9.864496802E-07	3.87E+01	9.03E+01	1.64E+02	1.13E+02	-3.07E+01
6.460500000E+02	1.000000000E+00	9.881950781E-07	1.153364704E-08	9.877897647E-07	1.210129216E-08	2.674657523E-05	3.505782313E-07	4.074104691E-03	5.105924507E-05	9.635715881E-01	1.049611122E-02	1.000000000E+00	9.782219490E-07	3.87E+01	9.02E+01	1.66E+02	1.15E+02	-3.06E+01
6.533500000E+02	1.000000000E+00	9.881776491E-07	1.153296199E-08	9.877896597E-07	1.210069201E-08	2.328501567E-05	3.059092498E-07	3.747085493E-03	4.704218926E-05	9.519225759E-01	1.036959779E-02	1.000000000E+00	9.661118810E-07	3.86E+01	9.02E+01	1.69E+02	1.17E+02	-3.06E+01
6.606500000E+02	1.000000000E+00	9.881178737E-07	1.153146896E-08	9.877919678E-07	1.209974609E-08	2.024027820E-05	2.665103176E-07	3.436587683E-03	4.321663928E-05	9.352363665E-01	1.018816732E-02	1.000000000E+00	9.489268339E-07	3.85E+01	9.01E+01	1.72E+02	1.19E+02	-3.06E+01
6.679500000E+02	1.000000000E+00	9.879689222E-07	1.152846393E-08	9.877977449E-07	1.209828958E-08	1.755343328E-05	2.316418882E-07	3.139417753E-03	3.954346443E-05	9.122794917E-01	9.938379550E-03	1.000000000E+00	9.254166068E-07	3.84E+01	8.99E+01	1.74E+02	1.21E+02	-3.05E+01
6.752500000E+02	1.000000000E+00	9.876413855E-07	1.152269738E-08	9.878036302E-07	1.209605086E-08	1.517343341E-05	2.006621757E-07	2.852744855E-03	3.598798581E-05	8.818978320E-01	9.607658618E-03	1.000000000E+00	8.944115869E-07	3.83E+01	8.97E+01	1.77E+02	1.23E+02	-3.05E+01
6.825500000E+02	1.000000000E+00	9.869726334E-07	1.151201974E-08	9.878064365E-07	1.209270366E-08	1.305693327E-05	1.730260877E-07	2.574351555E-03	3.252321922E-05	8.431896720E-01	9.186178816E-03	1.000000000E+00	8.549979448E-07	3.80E+01	8.94E+01	1.79E+02	1.24E+02	-3.05E+01
6.898500000E+02	1.000000000E+00	9.856829199E-07	1.149288434E-08	9.878047695E-07	1.208788604E-08	1.116819536E-05	1.482851413E-07	2.302886739E-03	2.913314954E-05	7.956918418E-01	8.668892988E-03	1.000000000E+00	8.067060597E-07	3.76E+01	8.90E+01	1.82E+02	1.26E+02	-3.05E+01
6.971500000E+02	1.000000000E+00	9.833192787E-07	1.145972449E-08	9.877959601E-07	1.208116457E-08	9.478907280E-06	1.260860290E-07	2.038065695E-03	2.581533032E-05	7.395447381E-01	8.057330833E-03	1.000000000E+00	7.496775418E-07	3.71E+01	8.84E+01	1.84E+02	1.27E+02	-3.04E+01
7.044500000E+02	1.000000000E+00	9.791937851E-07	1.140428343E-08	9.877695544E-07	1.207195802E-08	7.967738532E-06	1.061655152E-07	1.780759856E-03	2.258206825E-05	6.755978955E-01	7.360749409E-03	1.000000000E+00	6.847720443E-07	3.65E+01	8.76E+01	1.86E+02	1.29E+02	-3.04E+01
7.117500000E+02	1.000000000E+00	9.723304593E-07	1.131506128E-08	9.876946222E-07	1.205938800E-08	6.619513207E-06	8.833999606E-08	1.532931794E-03	1.945961998E-05	6.054232950E-01	6.596278288E-03	1.000000000E+00	6.135806499E-07	3.56E+01	8.66E+01	1.88E+02	1.30E+02	-3.04E+01
7.190500000E+02	1.000000000E+00	9.614431554E-07	1.117713055E-08	9.874930988E-07	1.204196700E-08	5.423965497E-06	7.248927733E-08	1.297399375E-03	1.648519118E-05	5.312191921E-01	5.787871734E-03	1.000000000E+00	5.383284118E-07	3.46E+01	8.52E+01	1.89E+02	1.31E+02	-3.04E+01
7.263500000E+02	1.000000000E+00	9.449716733E-07	1.097262217E-08	9.869877393E-07	1.201699761E-08	4.374157818E-06	5.853565577E-08	1.077450596E-03	1.370201087E-05	4.556099315E-01	4.964127429E-03	1.000000000E+00	4.616715948E-07	3.33E+01	8.35E+01	1.91E+02	1.32E+02	-3.04E+01
7.336500000E+02	1.000000000E+00	9.212005346E-07	1.068214580E-08	9.858124141E-07	1.197955313E-08	3.464746408E-06	4.642081563E-08	8.763673622E-04	1.115322661E-05	3.813711074E-01	4.155291671E-03	1.000000000E+00	3.864193570E-07	3.19E+01	8.14E+01	1.92E+02	1.33E+02	-3.04E+01
7.409500000E+02	1.000000000E+00	8.884707651E-07	1.028724449E-08	9.832806335E-07	1.192100989E-08	2.690350849E-06	3.608402470E-08	6.969412688E-04	8.875685878E-06	3.111275600E-01	3.389968511E-03	1.000000000E+00	3.152279630E-07	3.04E+01	7.89E+01	1.94E+02	1.33E+02	-3.04E+01
7.482500000E+02	1.000000000E+00	8.454696297E-07	9.773695102E-09	9.782307297E-07	1.182736243E-08	2.044368024E-06	2.744622559E-08	5.410691093E-04	6.894731093E-06	2.470784629E-01	2.692124044E-03	1.000000000E+00	2.503224657E-07	2.88E+01	7.60E+01	1.95E+02	1.34E+02	-3.04E+01
7.555500000E+02	1.000000000E+00	7.915520677E-07	9.135117264E-09	9.688996996E-07	1.167792895E-08	1.519437107E-06	2.041598207E-08	4.094980060E-04	5.220907674E-06	1.907970058E-01	2.078903472E-03	1.000000000E+00	1.932939477E-07	2.70E+01	7.26E+01	1.96E+02	1.35E+02	-3.04E+01
7.628500000E+02	1.000000000E+00	7.270213180E-07	8.376066650E-09	9.529090302E-07	1.144539055E-08	1.127558576E-06	1.515421048E-08	3.017413123E-04	3.848855017E-06	1.431340488E-01	1.559581105E-03	1.000000000E+00	1.450020614E-07	2.53E+01	6.89E+01	1.96E+02	1.35E+02	-3.04E+01
7.701500000E+02	1.000000000E+00	6.532873820E-07	7.513701509E-09	9.274535236E-07	1.109816406E-08	9.867777513E-07	1.321163153E-08	2.161155183E-04	2.757733197E-06	1.042312420E-01	1.135703137E-03	1.000000000E+00	1.055884169E-07	2.35E+01	6.49E+01	1.91E+02	1.36E+02	-3.03E+01
7.774500000E+02	1.000000000E+00	5.728390548E-07	6.577317698E-09	8.897456263E-07	1.060563958E-08	9.860340364E-07	1.310136644E-08	1.503080878E-04	1.918618352E-06	7.362645324E-02	8.022363700E-04	1.000000000E+00	7.458339466E-08	2.18E+01	6.08E+01	1.82E+02	1.36E+02	-3.03E+01
7.847500000E+02	1.000000000E+00	4.890075281E-07	5.605533413E-09	8.376765145E-07	9.945762850E-09	9.826632226E-07	1.294249933E-08	1.014746851E-04	1.295636584E-06	5.041869363E-02	5.493653186E-04	1.000000000E+00	5.107316674E-08	2.01E+01	5.66E+01	1.72E+02	1.36E+02	-3.03E+01
7.920500000E+02	1.000000000E+00	4.055553338E-07	4.641535039E-09	7.705384261E-07	9.113132665E-09	9.723703858E-07	1.268230448E-08	6.644952029E-05	8.486288514E-07	3.345412751E-02	3.645189546E-04	1.000000000E+00	3.388811928E-08	1.85E+01	5.25E+01	1.61E+02	1.37E+02	-3.03E+01