variables="Time","FLUX"
zone t="IFDM" 
   616.665600320460      -1.111226238813099E-002 
   805.692448492803      -6.076137656827357E-002 
   942.883315975785      -0.119317862511767      
   1088.33142639248      -0.240860811779086      
   1138.38561746474      -0.297546082301867      
   1191.16449071412      -0.361860221700830      
   1240.11170743283      -0.424126649057982      
   1279.37809833310      -0.486690749820869      
   1331.40589295011      -0.548001812383214      
   1360.97990297605      -0.605426436910800      
   1412.76966344188      -0.662909893645419      
   1444.09541993962      -0.723741517625076      
   1490.35030863768      -0.784997260350956      
   1544.52965466004      -0.840263533163803      
   1593.92982956934      -0.902278826025261      
   1651.71897504942      -0.965974788204055      
   1722.23023705625       -1.01911783300785      
   1793.30307477897       -1.08213942003737      
   1856.55313966917       -1.14596533992722      
   1910.09233559563       -1.19265001334701      
   1966.55264964921       -1.25353783525577      
   2007.84348634011       -1.31368279078916      
   2057.19050799235       -1.37836572909788      
   2096.05940497026       -1.43781260098065      
   2133.18811053224       -1.49746582463436      
   2164.17645939821       -1.55402377172401      
   2190.92410275526       -1.61343464180845      
   2221.00884625121       -1.67650979248915      
   2254.86284897606       -1.73314237745339      
   2282.73133275373       -1.79435158126923      
   2314.38756384971       -1.85752507832586      
   2348.37791623398       -1.91409970917572      
   2385.33791798007       -1.97735662503337      
   2415.97037112486       -2.02942927490622      
   2454.42790811334       -2.09388039675738      
   2492.92242128065       -2.15617492307908      
   2535.89336309687       -2.21523806847718      
   2611.49347171440       -2.27177055088020      
   2723.88950028449       -2.33639465698189      
   2939.62932664624       -2.38250154544305      
   3201.63097473958       -2.42304308273740      
   3728.48836972926       -2.42469477499754      
   3986.91950555488       -2.39986933981483      
   4258.14671026489       -2.40527312193546      
   4738.25697117591       -2.40906209168692      
   5008.00281772178       -2.38986435224862      
   5277.25872989822       -2.38777888222319      
   5512.92871664628       -2.37542587493151      
   5658.33753987297       -2.31543282942524      
   5624.36567557811       -2.33701898085056      
   5732.91387053929       -2.25472062604493      
   5804.54135094438       -2.19702818326145      
   5874.99021564944       -2.13562492097166      
   5936.92531518020       -2.07397579274204      
   5991.76561039904       -2.01246276887197      
   6048.00868940202       -1.96422123719741      
   6101.17581252906       -1.89327749834919      
   6145.70899790062       -1.82885447546258      
   6208.22647224786       -1.77311403262290      
   6262.20938232021       -1.71410445087599      
   6315.53365420725       -1.65570163114489      
   6427.78408907322       -1.53752353288281      
   6493.05628874287       -1.47638808884893      
   6556.78704395779       -1.41160680416427      
   6619.70201222739       -1.35447985304242      
   6687.77053542063       -1.29356481026174      
   6742.18329357181       -1.23677592480717      
   6801.51619451781       -1.18117070823440      
   6883.95458520666       -1.11612423957177      
   6959.97529785831       -1.05474292959804      
   7032.50869464460      -0.998766279837588      
   7120.69919215181      -0.940302871714177      
   7212.63121675380      -0.878496564901583      
   7314.29490942013      -0.815807774983492      
   7415.29765288997      -0.758221581409725      
   7530.04166881541      -0.699189169254113      
   7647.38326130325      -0.641035727833429      
   7809.14942163735      -0.577214198406789      
   7952.37202829106      -0.522438779380980      
   8139.01622394041      -0.464248458069320      
   8368.54354298128      -0.399743772566981      
   8634.77665253883      -0.342816148474929      
   8888.95552779965      -0.295394755328266      
   9156.98660405253      -0.255930637706001      
   9443.17298410816      -0.220756880733945      
   9681.28802068098      -0.198316345167681      
   9950.34749690742      -0.175105722354131      
   10186.4819969020      -0.159371180297006      
   10401.8913486655      -0.144518243252736      
   10779.4458665960      -0.123602076513481      
zone t="CVFEM"
   516.878448729468      -5.164062829284841E-003 
   738.005242143685      -2.260561698301424E-002 
   873.864967188991      -5.024094862104333E-002 
   986.270239803786      -9.077897354482489E-002 
   1117.94703461959      -0.169896876800090      
   1216.55325949938      -0.253424561304916      
   1326.37944364118      -0.370669247088245      
   1437.86493380772      -0.523791042050101      
   1618.61373994576      -0.742277175211093      
   1706.88743385533      -0.862950812762550      
   1828.34031522620      -0.986172675161920      
   2043.62949440853       -1.20253821459179      
   2104.73262991574       -1.26981591665847      
   2155.29062142449       -1.34186517414333      
   2194.34439929651       -1.39489055453307      
   2255.82654063667       -1.49892872697641      
   2335.64193364017       -1.66350348427160      
   2453.79006902862       -1.87061743962235      
   2507.16056113919       -1.96454964384562      
   2641.66141161270       -2.16244187026708      
   2703.23599339992       -2.23127467440325      
   2778.90312134157       -2.30035334447926      
   2866.85096267524       -2.36027087401829      
   2957.89093696310       -2.39682235834609      
   3118.52239080954       -2.43445038425334      
   3227.76620013485       -2.44859645672057      
   3336.91525800193       -2.44981524930806      
   3484.92396880220       -2.44725648734844      
   3606.14806006660       -2.43936155640165      
   3814.32163583642       -2.42907996965312      
   4149.45754362194       -2.42856628545738      
   4442.34816710066       -2.41875711255040      
   4666.72424222906       -2.41714405636652      
   5374.82268873739       -2.42083994829791      
   5487.23027236337       -2.39999227278475      
   5604.91620551651       -2.36149317897635      
   5796.78328642480       -2.25761130702334      
   5940.85865620264       -2.14021383312025      
   6106.86783305683       -1.99408955842477      
   6250.37700509642       -1.84524758700142      
   6430.29615822210       -1.66231718111188      
   6633.94246309711       -1.46666321283561      
   6757.50991969450       -1.35544136448572      
   6879.25861049597       -1.24733059836745      
   7020.23722529727       -1.13474155977352      
   7160.54102483502       -1.03390315691867      
   7355.80298116162      -0.901465712238504      
   7573.08656298928      -0.781095016648636      
   7833.39886191259      -0.666035903451958      
   8068.87241271065      -0.574534259662531      
   8464.18936254394      -0.455172492518651      
   8813.71593692566      -0.376947609480591      
   9215.10853514203      -0.306730931340180      
   9631.64056757579      -0.253498321086868      
   9985.56499622642      -0.217782780954522      
   10416.5316044687      -0.185686738693679      
   10801.6662390583      -0.159057701223710      
zone t="SHE"
  -1.47211411944365      -1.238988718265777E-003 
   362.128518327282      -1.704377818677434E-003 
   723.187038479834      -5.478507804487408E-002 
   1076.11773232456      -0.205298937859140      
   1432.76222112996      -0.605568687918850      
   1780.36603421281       -1.22141984067887      
   2119.79348975313       -1.72673317925734      
   2486.74046638345       -2.04777702066679      
   2835.45818685339       -2.22453267909578      
   3196.84024857065       -2.29695512595361      
   3557.42501143202       -2.33820352782500      
   3799.85701688258       -2.35918291723450      
   4270.79487443399       -2.37786872866235      
   4624.03293276520       -2.39514344521404      
   4989.08950225313       -2.39636750635739      
   5348.27610335270       -2.39637101872796      
   5708.30853454288       -2.30543925706338      
   6080.33049171684       -1.99749831406213      
   6435.41042595574       -1.60005426612529      
   6806.39705012262       -1.21061227643761      
   7173.12910271353      -0.891620537533192      
   7532.26717257840      -0.637906205656322      
   7898.25045754812      -0.458878921561741      
   8253.84112525702      -0.338041958778819      
   8627.08329633219      -0.248654762072018      
   8996.15871425609      -0.187242718855810      
   9356.87982677687      -0.137892156174045      
   9721.35633245950      -0.120688565126375      
   10079.8334531279      -9.997084732427615E-002 
   10441.7193152816      -8.738514548238896E-002 
   10806.4223000596      -6.530111552889274E-002 
zone t="Modflow-Surface"
   67.0493672643984      -6.471542773648838E-003                
   661.570858491436      -2.288309425797754E-003                
   874.486629195475      -9.796879609986407E-003                
   980.850918594845      -2.738770951290457E-002                
   1155.48478915982      -8.036040434409990E-002                
   1244.90474461294      -0.138177536282788                     
   1403.77520794286      -0.295114643775377                     
   1528.53745731851      -0.474624878823215                     
   1617.95972378281      -0.625784136729561                     
   1680.88393609712      -0.758081086586959                     
   1873.91345562719       -1.09977415457240                     
   1998.07253108577       -1.31925165432654                     
   2123.41715527791       -1.51788499093808                     
   2230.77980150554       -1.67558164856625                     
   2316.92967614388       -1.79249529342344                     
   2409.65437757943       -1.89093825955014                     
   2509.91759747278       -1.99313507172261                     
   2671.83166252218       -2.11801213875269                     
   2868.10584174409       -2.21987878809166                     
   2995.00346544685       -2.26712983126572                     
   3137.49117054642       -2.31103446338002                     
   3331.09613185945       -2.34415084929120                     
   3520.85557057475       -2.36900613962375                     
   3798.82861690903       -2.38873161274007                     
   4081.08165594222       -2.39951195610942                     
   4457.34200761393       -2.40813394776402                     
   5396.95293176376       -2.40912619244981                     
   5490.94406732404       -2.40141390477261                     
   5563.07072614325       -2.37483404049061                     
   5624.36567557811       -2.33701898085056                     
   5752.45578104795       -2.24822361858466                     
   5804.54135094438       -2.19702818326145                     
   5874.99021564944       -2.13562492097166                     
   5936.92531518020       -2.07397579274204                     
   5991.76561039904       -2.01246276887197                     
   6030.95342691930       -1.96292517245740                     
   6087.53160254288       -1.88874127175914                     
   6132.06478791444       -1.82950250783259                     
   6191.17120976513       -1.76987387077286                     
   6241.74306734094       -1.71216035376596                     
   6293.36181297971       -1.65375753403487                     
   6391.96803785950       -1.53428337103278                     
   6465.76786877051       -1.46731563566883                     
   6526.08757148888       -1.40707057757422                     
   6590.70806600676       -1.34799952934234                     
   6653.66001045519       -1.28643645419166                     
   6714.89487359946       -1.22705543925706                     
   6777.63882704200       -1.16691399609424                     
   6851.54958648949       -1.10510768928165                     
   6922.45372039632       -1.04955867063799                     
   7008.63132716878      -0.981269405847395                     
   7089.99971968290      -0.921509932983970                     
   7193.87042802281      -0.855815431951333                     
   7281.88991070296      -0.806735321803392                     
   7403.35896915207      -0.744612901639575                     
   7512.98640633268      -0.690764748444020                     
   7643.97220880671      -0.632611307023336                     
   7790.38863290636      -0.564253551006645                     
   7948.96097579451      -0.510126164350844                     
   8145.83832893350      -0.447399616449134                     
   8373.66012172609      -0.387431157536845                     
   8634.77665253883      -0.333095662924821                     
   8892.36658029619      -0.292154593478230                     
   9155.28107780426      -0.253338508225972                     
   9443.17298410816      -0.220756880733945                     
   9682.99354692925      -0.195076183317645                     
   9952.05302315569      -0.171865560504095                     
   10196.7151543916      -0.156131018446970                     
   10444.5295048723      -0.142574146142715                     
   10794.7956028305      -0.123602076513481                     
