variables="TIME","FLUX"
zone t="Diffusion wave approximation"
 242.2651606  0.396306689 
 222.1827423  0.396344555 
 212.7395009  0.396212438 
 202.0913722  0.394376893 
 182.2654527  0.390906189 
 174.0408151  0.388260251 
 162.2210796  0.382787059 
 157.7657398  0.380914753 
 152.3072897  0.378847864 
 146.404208   0.375944602 
 141.9660499  0.373068426 
 136.8613414  0.368175113 
 132.0752892  0.363348134 
 125.2734872  0.354922758 
 121.4972591  0.349807775 
 120.8162703  0.349592186 
 115.7315591  0.3421798   
 111.6651184  0.335935464 
 106.6809709  0.328220425 
 100.9222014  0.317748613 
 91.50646521  0.29715767  
 86.54310902  0.285009517 
 81.08429797  0.270117858 
 77.44220291  0.258147427 
 70.9980409   0.234997334 
 66.55836673  0.219091302 
 61.90587004  0.199635518 
 47.13347473  0.139595139 
 41.71516348  0.118620558 
 38.03747769  0.105812372 
 32.19092248  0.087067201 
 21.49290895  0.053925396 
 1.157096127  9.50802E-05 
zone t="Kinematic wave approximation"
0.410701264  5.91487E-05
7.648616198  0.009251248 
14.28531473  0.020827538 
17.93491777  0.027508027 
20.82838001  0.034350208 
24.98000741  0.044280837 
30.26108134  0.059007211 
34.89062093  0.074098981 
47.09210862  0.122645712 
54.74794403  0.154704874 
61.60822172  0.186190238 
68.78556742  0.215435137 
73.56440041  0.238583571 
79.39016428  0.27194981  
81.20608616  0.282681434 
86.16388355  0.31835088  
89.14166624  0.339799479 
92.56068749  0.362511208 
94.43891122  0.375408947 
97.57277339  0.389194746 
99.02448577  0.393389054 
101.0672355  0.396318297 
242.2336848  0.396306689 
zone t="Full St. Venant"
 1.255855017     0.000131841
 6.569487617     0.00349088  
 10.07658331     0.006494475 
 14.29094572     0.011563852 
 18.20506088     0.017737708 
 21.5938336      0.024315654 
 24.17759143     0.029733014 
 26.98269045     0.035466018 
 31.86266467     0.048378959 
 37.52231435     0.06493922  
 41.82872177     0.079594837 
 48.44022523     0.103488435 
 52.11098058     0.117960248 
 55.97557191     0.13349204  
 58.87509829     0.145648486 
 61.82371535     0.15969382  
 66.38561087     0.180909971 
 70.73129083     0.201103456 
 76.04073628     0.227066983 
 81.54336799     0.25088236  
 88.65862842     0.279554567 
 92.71878835     0.293966956 
 95.99227017     0.303808032 
 98.61688877     0.310829318 
 101.8773038     0.318919702 
 105.7601598     0.326712132 
 108.9623157     0.332163213 
 117.1908516     0.344669575 
 121.9684574     0.351157969 
 131.1621304     0.362309991 
 137.2685053     0.368798109 
 142.2294069     0.373404247 
 151.8781794     0.378662126 
 162.1688847     0.382662405 
 166.7257268     0.384807513 
 172.0096884     0.387381312 
 177.3765266     0.389540517 
 182.2968563     0.390953729 
 190.2052199     0.392361137 
 202.2542377     0.394725428 
 214.5325379     0.396418353 
 222.4749762     0.396360862 
 242.2965642     0.396354505     
zone t="Modflow-Surface"
 1.25E+00      3.70371E-05
 9.982661299   0.006891932 
 14.52354889   0.012760094 
 19.52256801   0.02202599  
 23.47249049   0.030720577 
 26.94478956   0.039394157 
 29.61460045   0.046933961 
 35.80529574   0.064619154 
 41.31038198   0.082879526 
 45.4553677    0.098288046 
 49.98492113   0.115404139 
 56.0393176    0.140242734 
 64.75551163   0.17992766  
 73.0047667    0.217767919 
 77.51677742   0.237235865 
 83.08965211   0.25991028  
 87.5771175    0.277326816 
 91.89182702   0.292655181 
 96.63218158   0.307061765 
 101.0117919   0.31920439  
 104.8401427   0.328870784 
 108.9356768   0.337535244 
 113.5984248   0.346905894 
 120.315401    0.357539951 
 126.2404291   0.364547416 
 131.3119292   0.370965882 
 137.4750471   0.37636113  
 143.5373847   0.380936865 
 148.3881933   0.383918348 
 152.4880589   0.386085844 
 156.9076636   0.387560417 
 169.0360206   0.392213265 
 177.362377    0.394399281 
 199.4204784   0.396500442 
 242.2865295   0.396210779 
 zone t="HydroSphere"        
  0.10000e+01  0.18467e-03                 
  0.30000e+01  0.11493e-02 
  0.55000e+01  0.31542e-02 
  0.80000e+01  0.58885e-02 
  0.10500e+02  0.92638e-02 
  0.13000e+02  0.13223e-01 
  0.15500e+02  0.17727e-01 
  0.18000e+02  0.22744e-01 
  0.20500e+02  0.28248e-01 
  0.23000e+02  0.34219e-01 
  0.25500e+02  0.40639e-01 
  0.28000e+02  0.47493e-01 
  0.30500e+02  0.54769e-01 
  0.33000e+02  0.62453e-01 
  0.35500e+02  0.70535e-01 
  0.38000e+02  0.79006e-01 
  0.40500e+02  0.87856e-01 
  0.43000e+02  0.97078e-01 
  0.45500e+02  0.10666e+00 
  0.48000e+02  0.11660e+00 
  0.50500e+02  0.12687e+00 
  0.53000e+02  0.13745e+00 
  0.55500e+02  0.14831e+00 
  0.58000e+02  0.15942e+00 
  0.60500e+02  0.17072e+00 
  0.63000e+02  0.18213e+00 
  0.65500e+02  0.19359e+00 
  0.68000e+02  0.20501e+00 
  0.70500e+02  0.21632e+00 
  0.73000e+02  0.22743e+00 
  0.75500e+02  0.23826e+00 
  0.78000e+02  0.24875e+00 
  0.80500e+02  0.25884e+00 
  0.83000e+02  0.26849e+00 
  0.85500e+02  0.27768e+00 
  0.88000e+02  0.28638e+00 
  0.90500e+02  0.29458e+00 
  0.93000e+02  0.30229e+00 
  0.95500e+02  0.30951e+00 
  0.98000e+02  0.31626e+00 
  0.10050e+03  0.32253e+00 
  0.10300e+03  0.32837e+00 
  0.10550e+03  0.33379e+00 
  0.10800e+03  0.33882e+00 
  0.11050e+03  0.34349e+00 
  0.11300e+03  0.34780e+00 
  0.11550e+03  0.35180e+00 
  0.11800e+03  0.35549e+00 
  0.12050e+03  0.35889e+00 
  0.12300e+03  0.36204e+00 
  0.12550e+03  0.36494e+00 
  0.12800e+03  0.36762e+00 
  0.13050e+03  0.37010e+00 
  0.13300e+03  0.37238e+00 
  0.13550e+03  0.37448e+00 
  0.13800e+03  0.37642e+00 
  0.14050e+03  0.37821e+00 
  0.14300e+03  0.37986e+00 
  0.14550e+03  0.38139e+00 
  0.14800e+03  0.38280e+00 
  0.15050e+03  0.38409e+00 
  0.15300e+03  0.38529e+00 
  0.15550e+03  0.38640e+00 
  0.15800e+03  0.38742e+00 
  0.16050e+03  0.38836e+00 
  0.16300e+03  0.38923e+00 
  0.16550e+03  0.39004e+00 
  0.16800e+03  0.39078e+00 
  0.17050e+03  0.39147e+00 
  0.17300e+03  0.39210e+00 
  0.17550e+03  0.39269e+00 
  0.17800e+03  0.39323e+00 
  0.18050e+03  0.39373e+00 
  0.18300e+03  0.39419e+00 
  0.18550e+03  0.39462e+00 
  0.18800e+03  0.39502e+00 
  0.19050e+03  0.39539e+00 
  0.19300e+03  0.39573e+00 
  0.19550e+03  0.39604e+00 
  0.19800e+03  0.39633e+00 
  0.20050e+03  0.39660e+00 
  0.20300e+03  0.39685e+00 
  0.20550e+03  0.39708e+00 
  0.20800e+03  0.39730e+00 
  0.21050e+03  0.39749e+00 
  0.21300e+03  0.39768e+00 
  0.21550e+03  0.39785e+00 
  0.21800e+03  0.39800e+00 
  0.22050e+03  0.39815e+00 
  0.22300e+03  0.39828e+00 
  0.22550e+03  0.39840e+00 
  0.22800e+03  0.39852e+00 
  0.23050e+03  0.39863e+00 
  0.23300e+03  0.39873e+00 
  0.23550e+03  0.39882e+00 
  0.23800e+03  0.39891e+00 
  0.24016e+03  0.39898e+00 
  0.24231e+03  0.39904e+00 
