variables="Time","FLUX"
zone t="Experiment"
 480           0          
 504           2.82222E-06
 522           3.52778E-06
 538.8         4.93889E-06
 546           0.00000635 
 559.8         8.81944E-06
 570           0.0000115  
 594           1.53806E-05
 613.8         1.65806E-05
 639           1.76389E-05
 672           1.83444E-05
 705           1.84861E-05
 732           1.97556E-05
 762           2.16611E-05
 795           2.31417E-05
 825           2.39889E-05
 855           2.46944E-05
 900           2.56361E-05
 909           2.44E-05
 912           1.56639E-05
 918           1.00889E-05
 927           7.05556E-06
 942           2.89167E-06
 957           1.76389E-06
 966           1.05833E-06
 984           0     
zone t="Smith and Woolhiser, 1971" 
417.0810811  0          
456.3243243  4.21227E-07
474.1621622  8.42454E-07
486.6486486  1.4743E-06 
497.3513514  2.10614E-06
511.6216216  2.69585E-06
527.6756757  4.52819E-06
536.5945946  5.68657E-06
545.5135135  6.73964E-06
556.2162162  8.21393E-06
559.7837838  9.05638E-06
566.9189189  1.04254E-05
572.2702703  1.14784E-05
577.6216216  1.30159E-05
582.972973   1.41111E-05
586.5405405  1.51642E-05
595.4594595  1.5796E-05 
604.3783784  1.62172E-05
616.8648649  1.69544E-05
627.5675676  1.74809E-05
640.0540541  1.81128E-05
650.7567568  1.86393E-05
661.4594595  1.91658E-05
677.5135135  1.97556E-05
693.5675676  2.04295E-05
709.6216216  2.11667E-05
727.4594595  2.17985E-05
747.0810811  2.24303E-05
759.5675676  2.28516E-05
773.8378378  2.32728E-05
791.6756757  2.3694E-05 
810.5837838  2.41153E-05
830.9189189  2.44312E-05
845.1891892  2.48524E-05
859.4594595  2.51683E-05
879.0810811  2.54842E-05
891.5675676  2.56949E-05
902.2702703  2.6074E-05 
905.8378378  2.22197E-05
907.6216216  1.81128E-05
912.2594595  1.45323E-05
917.2540541  1.08045E-05
920.1081081  7.37148E-06
930.8108108  4.42289E-06
937.9459459  2.10614E-06
954          4.21227E-07
966.4864865  0          
zone t="HydroSmith, 1971" 
 486.4212182   6.47702E-08     
 492.0864057   4.03407E-07     
 495.3954311   6.55738E-07     
 498.7777173   9.70749E-07     
 504.2858274   1.31469E-06     
 507.9828988   1.62327E-06     
 512.1726294   1.94471E-06     
 516.7321302   2.23401E-06     
 534.0974631   3.53584E-06     
 544.0448633   4.25908E-06     
 548.4947092   4.61266E-06     
 551.215915    4.91803E-06     
 555.6678091   5.36805E-06     
 560.7264286   6.04307E-06     
 565.2092025   6.91096E-06     
 567.9581372   7.55384E-06     
 570.8983377   8.22887E-06     
 572.5943649   8.58245E-06     
 574.2182341   8.96818E-06     
 577.7259302   1.02057E-05     
 578.9626987   1.09129E-05     
 580.9990341   1.15879E-05     
 584.21542     1.23112E-05     
 587.3878495   1.29058E-05     
 593.07021     1.36451E-05     
 598.2129614   1.41434E-05     
 605.4902019   1.47541E-05     
 613.7423626   1.53166E-05     
 624.4749926   1.59113E-05     
 633.0745514   1.62327E-05     
 643.1216808   1.65542E-05     
 653.1555759   1.68756E-05     
 663.2879399   1.70363E-05     
 672.9612028   1.71970E-05     
 681.959521    1.73578E-05     
 699.0767125   1.76792E-05     
 715.5454276   1.80006E-05     
 723.1670727   1.81614E-05     
 728.5729328   1.84828E-05     
 734.4838986   1.86435E-05     
 744.30967     1.89650E-05     
 750.0920749   1.92864E-05     
 759.0746381   1.96078E-05     
 767.2473935   2.00900E-05     
 778.3707478   2.05722E-05     
 788.1662697   2.10543E-05     
 798.8495865   2.15365E-05     
 804.0832442   2.16972E-05     
 809.5562207   2.18579E-05     
 857.0112653   2.33044E-05     
 880.8605738   2.39473E-05     
 893.8939084   2.42687E-05     
 910.1324428   2.45902E-05     
 911.9245755   2.29830E-05     
 913.4622648   2.18579E-05     
 915.6402378   2.02507E-05     
 918.0775383   1.86435E-05     
 920.5666728   1.75185E-05     
 922.6382995   1.65542E-05     
 923.6475656   1.59113E-05     
 925.313028    1.40309E-05     
 927.1781065   1.16040E-05     
 928.8966633   1.02057E-05     
 932.2726475   8.88782E-06     
 934.742876    8.00386E-06     
 938.3638506   6.92703E-06     
 940.689133    6.42880E-06     
 944.4893997   5.33590E-06     
 949.4913013   4.16265E-06     
 955.1665721   3.08582E-06     
 960.5533686   2.16972E-06     
 966.7526511   1.34041E-06     
 966.7753383   1.34201E-06     
 971.8002422   6.44487E-07   
 990.0         0.0  
zone t="Akan and Yen, 1981" 
425.6300268      0          
437.2117962      4.62659E-09
443.002681       1.15665E-08
454.5844504      8.09654E-08
481.6085791      1.01931E-06
500.9115282      2.54463E-06
510.5630027      3.23862E-06
520.2144772      3.9326E-06 
529.8659517      4.74226E-06
541.4477212      5.66758E-06
549.1689008      6.82423E-06
559.5924933      8.2122E-06 
568.4718499      9.25319E-06
579.2815013      1.24918E-05
585.844504       1.33015E-05
600.1286863      1.43424E-05
607.849866       1.48051E-05
620.2037534      1.53834E-05
628.310992       1.59617E-05
639.1206434      1.63087E-05
646.8418231      1.66557E-05
661.1260054      1.68871E-05
680.4289544      1.73497E-05
699.7319035      1.78124E-05
708.2252011      1.80437E-05
722.1233244      1.8275E-05 
742.1983914      1.88534E-05
761.5013405      1.9663E-05 
780.8042895      2.05883E-05
800.1072386      2.1745E-05 
819.4101877      2.26703E-05
830.9919571      2.348E-05  
844.5040214      2.3827E-05 
869.5978552      2.46366E-05
881.9517426      2.53306E-05
904.3431635      2.60246E-05
922.4879357      2.64872E-05
929.4369973      2.66029E-05
935.227882       1.9663E-05 
941.0187668      1.45738E-05
952.6005362      9.36885E-06
962.2520107      6.36157E-06
971.9034853      4.51093E-06
982.3270777      2.54463E-06
996.997319       1.38798E-06
1016.300268      0    
zone t="Govindaraju and Kavvas, 1991"            
 360         0          	          
 390	     0.000000000
 420	     0.000000633
 450	     0.000000633
 480	     0.000000724
 510	     0.000003166
 540	     0.000006061
 570	     0.000011217
 600	     0.000014021
 630	     0.000016101
 660	     0.000016282
 690	     0.000016915
 720	     0.000017910
 750	     0.000018634
 780	     0.000020081
 810	     0.000021528
 840	     0.000022252
 870	     0.000022985
 900	     0.000023728
 930	     0.000010312
 960	     0.000005246
 990	     0.000003347
 1020        0.000001628
 1050        0.000000000
zone t="Singh and Bhallamudi, 1998"           
 414.7570205       1.25362E-07
 438.024654        2.25008E-07
 458.6350469       4.35551E-07
 478.4201923       7.45741E-07
 495.8184532       1.06397E-06
 513.832105        1.46577E-06
 528.7083034       2.02507E-06
 542.4888982       2.81260E-06
 557.3650966       3.85728E-06
 574.2831447       5.33590E-06
 588.7538091       7.65027E-06
 604.8607891       1.05754E-05
 615.776965        1.21826E-05
 621.2604973       1.29058E-05
 626.2822502       1.34844E-05
 635.067403        1.43041E-05
 642.7208732       1.49148E-05
 653.0181922       1.56059E-05
 665.9588873       1.63934E-05
 675.3357984       1.68756E-05
 685.154165        1.71970E-05
 707.4930404       1.81614E-05
 737.5762926       1.91257E-05
 761.5198161       1.99293E-05
 796.6613727       2.10543E-05
 825.6632007       2.18579E-05
 863.9809679       2.29830E-05
 875.741455        2.33044E-05
 888.0634507       2.37866E-05
 891.3965812       2.39473E-05
 894.0538218       2.39473E-05
 898.7806408       2.37866E-05
 900.3750481       2.36258E-05
 902.0860425       2.31437E-05
 900.7059034       2.21794E-05
 900.0829501       2.12150E-05
 900.4497268       1.97686E-05
 901.3959729       1.86435E-05
 903.0322886       1.75185E-05
 904.743283        1.63934E-05
 907.1301675       1.51238E-05
 909.3818739       1.37737E-05
 912.3094705       1.17004E-05
 914.6358557       1.01575E-05
 917.8479878       8.42173E-06
 921.7965091       6.91096E-06
 926.9153129       4.99839E-06
 933.4000762       3.34298E-06
 936.9236849       2.47509E-06
 941.4464765       1.71970E-06
 947.7960619       8.77531E-07
 956.4578529       3.29476E-07
 962.6914814       1.12825E-08
zone t="Morita and Yen, 2002"              
 60      0                
 120     0                
 180     0          
 240     0          
 300     0          
 360     5.27778E-09
 390     7.63889E-08
 420     4.25556E-07
 450     1.53611E-06
 480     4.26833E-06
 510     9.57889E-06
 540     1.27428E-05
 570     1.41769E-05
 600     1.54439E-05
 630     0.00001657 
 660     1.75861E-05
 690     1.85089E-05
 720     1.93542E-05
 750     2.01356E-05
 780     2.08589E-05
 810     2.15317E-05
 840     2.21597E-05
 870     2.27472E-05
 900     2.32989E-05
 930     1.93889E-07
 960     0          
 1020    0          
 1080    0       
zone t="Thoms, 2003"
1.00E+00	0
2.01E+00	0
3.03E+00	0
4.06E+00	0
5.09E+00	0
6.14E+00	0
7.20E+00	0
8.27E+00	0
9.35E+00	0
1.04E+01	0
1.15E+01	0
1.27E+01	0
1.38E+01	0
1.49E+01	0
1.61E+01	0
1.72E+01	0
1.84E+01	0
1.95E+01	0
2.07E+01	0
2.19E+01	0
2.32E+01	0
2.44E+01	0
2.56E+01	0
2.69E+01	0
2.81E+01	0
2.94E+01	0
3.07E+01	0
3.20E+01	0
3.33E+01	0
3.46E+01	0
3.60E+01	0
3.73E+01	0
3.87E+01	0
4.00E+01	0
4.14E+01	0
4.28E+01	0
4.43E+01	0
4.57E+01	0
4.71E+01	0
4.86E+01	0
5.01E+01	0
5.15E+01	0
5.31E+01	0
5.46E+01	0
5.61E+01	0
5.76E+01	0
5.92E+01	0
6.08E+01	0
6.24E+01	0
6.40E+01	0
6.56E+01	0
6.73E+01	0
6.89E+01	0
7.06E+01	0
7.23E+01	0
7.40E+01	0
7.57E+01	0
7.74E+01	0
7.92E+01	0
8.10E+01	0
8.28E+01	0
8.46E+01	0
8.64E+01	0
8.82E+01	0
9.01E+01	0
9.20E+01	0
9.39E+01	0
9.58E+01	0
9.78E+01	0
9.97E+01	0
1.02E+02	0
1.04E+02	0
1.06E+02	0
1.08E+02	0
1.10E+02	0
1.12E+02	0
1.14E+02	0
1.16E+02	0
1.18E+02	0
1.20E+02	0
1.23E+02	0
1.25E+02	0
1.27E+02	0
1.29E+02	0
1.31E+02	0
1.34E+02	0
1.36E+02	0
1.38E+02	0
1.41E+02	0
1.43E+02	0
1.46E+02	0
1.48E+02	0
1.50E+02	0
1.53E+02	0
1.55E+02	0
1.58E+02	0
1.60E+02	0
1.63E+02	0
1.66E+02	0
1.68E+02	0
1.71E+02	0
1.74E+02	0
1.76E+02	0
1.79E+02	0
1.82E+02	0
1.85E+02	0
1.87E+02	0
1.90E+02	0
1.93E+02	0
1.96E+02	0
1.99E+02	0
2.02E+02	0
2.05E+02	0
2.08E+02	0
2.11E+02	0
2.14E+02	0
2.17E+02	0
2.20E+02	0
2.23E+02	0
2.27E+02	0
2.30E+02	0
2.33E+02	0
2.36E+02	0
2.40E+02	0
2.43E+02	0
2.46E+02	0
2.50E+02	0
2.53E+02	0
2.57E+02	0
2.60E+02	0
2.64E+02	0
2.68E+02	0
2.71E+02	0
2.75E+02	0
2.79E+02	0
2.82E+02	0
2.86E+02	0
2.90E+02	0
2.94E+02	0
2.98E+02	0
3.02E+02	0
3.06E+02	0
3.10E+02	0
3.14E+02	0
3.18E+02	0
3.22E+02	0
3.26E+02	0
3.30E+02	0
3.34E+02	0
3.39E+02	0
3.43E+02	0
3.48E+02	0
3.50E+02	0
3.51E+02	0
3.52E+02	2.66099E-09
3.53E+02	2.70639E-09
3.54E+02	2.76238E-09
3.55E+02	2.83508E-09
3.57E+02	2.92124E-09
3.58E+02	3.02643E-09
3.59E+02	3.14935E-09
3.60E+02	3.286E-09
3.61E+02	3.44499E-09
3.63E+02	3.62312E-09
3.64E+02	3.83271E-09
3.65E+02	4.06201E-09
3.66E+02	4.32184E-09
3.68E+02	4.61873E-09
3.69E+02	4.94592E-09
3.70E+02	5.31224E-09
3.72E+02	5.72233E-09
3.73E+02	6.18084E-09
3.74E+02	6.67881E-09
3.76E+02	7.24214E-09
3.77E+02	7.85806E-09
3.78E+02	8.55778E-09
3.80E+02	9.33213E-09
3.81E+02	1.01834E-08
3.83E+02	1.113E-08
3.84E+02	1.21871E-08
3.85E+02	1.33479E-08
3.87E+02	1.46381E-08
3.88E+02	1.60831E-08
3.90E+02	1.76613E-08
3.91E+02	1.93989E-08
3.93E+02	2.13287E-08
3.94E+02	2.34449E-08
3.96E+02	2.57799E-08
3.98E+02	2.83453E-08
3.99E+02	3.11681E-08
4.01E+02	3.42633E-08
4.02E+02	3.76556E-08
4.04E+02	4.1307E-08
4.06E+02	4.52705E-08
4.07E+02	4.95718E-08
4.09E+02	5.42762E-08
4.11E+02	5.93201E-08
4.12E+02	6.47011E-08
4.14E+02	7.03917E-08
4.16E+02	7.64782E-08
4.18E+02	8.28394E-08
4.19E+02	8.95314E-08
4.21E+02	9.642E-08
4.23E+02	1.03587E-07
4.25E+02	1.10901E-07
4.27E+02	1.18439E-07
4.29E+02	1.26026E-07
4.31E+02	1.33984E-07
4.32E+02	1.42252E-07
4.34E+02	1.50941E-07
4.36E+02	1.60277E-07
4.38E+02	1.70339E-07
4.40E+02	1.81351E-07
4.42E+02	1.93752E-07
4.44E+02	2.07735E-07
4.46E+02	2.23634E-07
4.48E+02	2.4195E-07
4.50E+02	2.63143E-07
4.53E+02	2.87188E-07
4.55E+02	3.14973E-07
4.57E+02	3.46255E-07
4.59E+02	3.81423E-07
4.61E+02	4.20626E-07
4.63E+02	4.63873E-07
4.66E+02	5.11204E-07
4.68E+02	5.62711E-07
4.70E+02	6.18367E-07
4.72E+02	6.7835E-07
4.75E+02	7.42832E-07
4.77E+02	8.12485E-07
4.80E+02	8.87349E-07
4.82E+02	9.68195E-07
4.84E+02	1.05516E-06
4.87E+02	1.14912E-06
4.89E+02	1.25039E-06
4.92E+02	1.35931E-06
4.94E+02	1.47675E-06
4.97E+02	1.60313E-06
4.99E+02	1.73893E-06
5.02E+02	1.88477E-06
5.05E+02	2.05894E-06
5.07E+02	2.22788E-06
5.10E+02	2.40853E-06
5.13E+02	2.60287E-06
5.15E+02	2.81175E-06
5.18E+02	3.03607E-06
5.21E+02	3.27701E-06
5.24E+02	3.53474E-06
5.26E+02	3.81157E-06
5.29E+02	4.10751E-06
5.32E+02	4.42541E-06
5.35E+02	4.76475E-06
5.38E+02	5.12752E-06
5.41E+02	5.51592E-06
5.44E+02	5.93688E-06
5.45E+02	6.11488E-06
5.47E+02	6.33902E-06
5.49E+02	6.57883E-06
5.50E+02	6.82411E-06
5.52E+02	7.07965E-06
5.53E+02	7.34181E-06
5.55E+02	7.61338E-06
5.56E+02	7.89251E-06
5.58E+02	8.18329E-06
5.60E+02	8.48064E-06
5.61E+02	8.78852E-06
5.63E+02	9.10236E-06
5.65E+02	9.42296E-06
5.66E+02	9.74904E-06
5.68E+02	1.00765E-05
5.70E+02	1.04031E-05
5.72E+02	1.07269E-05
5.73E+02	1.10462E-05
5.75E+02	1.13549E-05
5.77E+02	1.16527E-05
5.79E+02	1.19375E-05
5.81E+02	1.21639E-05
5.82E+02	1.24812E-05
5.84E+02	1.26765E-05
5.86E+02	1.29238E-05
5.88E+02	1.31431E-05
5.90E+02	1.33436E-05
5.92E+02	1.35269E-05
5.94E+02	1.36987E-05
5.96E+02	1.38589E-05
5.98E+02	1.40091E-05
6.00E+02	1.41509E-05
6.02E+02	1.42845E-05
6.04E+02	1.44121E-05
6.06E+02	1.45353E-05
6.08E+02	1.46546E-05
6.10E+02	1.47679E-05
6.13E+02	1.48813E-05
6.15E+02	1.49893E-05
6.17E+02	1.5096E-05
6.19E+02	1.52032E-05
6.21E+02	1.5307E-05
6.24E+02	1.54104E-05
6.26E+02	1.55125E-05
6.28E+02	1.56149E-05
6.31E+02	1.57185E-05
6.33E+02	1.58168E-05
6.35E+02	1.59196E-05
6.38E+02	1.60201E-05
6.40E+02	1.61211E-05
6.43E+02	1.62218E-05
6.45E+02	1.63207E-05
6.48E+02	1.64248E-05
6.50E+02	1.6522E-05
6.53E+02	1.66245E-05
6.55E+02	1.67306E-05
6.58E+02	1.68248E-05
6.60E+02	1.69317E-05
6.63E+02	1.70305E-05
6.66E+02	1.71285E-05
6.68E+02	1.72397E-05
6.71E+02	1.73265E-05
6.74E+02	1.74496E-05
6.77E+02	1.75344E-05
6.80E+02	1.76555E-05
6.80E+02	1.76615E-05
6.81E+02	1.76831E-05
6.82E+02	1.77219E-05
6.82E+02	1.77589E-05
6.83E+02	1.77888E-05
6.84E+02	1.78107E-05
6.85E+02	1.78306E-05
6.85E+02	1.78526E-05
6.86E+02	1.78775E-05
6.87E+02	1.7904E-05
6.88E+02	1.7933E-05
6.88E+02	1.79601E-05
6.89E+02	1.79877E-05
6.90E+02	1.8016E-05
6.91E+02	1.80436E-05
6.92E+02	1.80724E-05
6.92E+02	1.81006E-05
6.93E+02	1.81296E-05
6.94E+02	1.8158E-05
6.95E+02	1.81879E-05
6.96E+02	1.82188E-05
6.97E+02	1.82473E-05
6.98E+02	1.82771E-05
6.98E+02	1.83069E-05
6.99E+02	1.83388E-05
7.00E+02	1.83687E-05
7.01E+02	1.84011E-05
7.02E+02	1.84314E-05
7.03E+02	1.84633E-05
7.04E+02	1.84953E-05
7.05E+02	1.8526E-05
7.06E+02	1.85583E-05
7.07E+02	1.85924E-05
7.08E+02	1.86248E-05
7.09E+02	1.86577E-05
7.10E+02	1.86913E-05
7.11E+02	1.8725E-05
7.12E+02	1.87591E-05
7.13E+02	1.87928E-05
7.14E+02	1.88257E-05
7.15E+02	1.886E-05
7.16E+02	1.88946E-05
7.17E+02	1.89276E-05
7.18E+02	1.89631E-05
7.19E+02	1.89996E-05
7.20E+02	1.90341E-05
7.21E+02	1.90696E-05
7.22E+02	1.91072E-05
7.23E+02	1.91434E-05
7.24E+02	1.918E-05
7.25E+02	1.92165E-05
7.27E+02	1.92533E-05
7.28E+02	1.92928E-05
7.29E+02	1.9328E-05
7.30E+02	1.93676E-05
7.31E+02	1.94054E-05
7.33E+02	1.94429E-05
7.34E+02	1.94825E-05
7.35E+02	1.95205E-05
7.36E+02	1.956E-05
7.37E+02	1.95998E-05
7.39E+02	1.96379E-05
7.40E+02	1.96792E-05
7.41E+02	1.97163E-05
7.43E+02	1.97581E-05
7.44E+02	1.9798E-05
7.45E+02	1.98382E-05
7.47E+02	1.9881E-05
7.48E+02	1.99216E-05
7.49E+02	1.99621E-05
7.51E+02	2.00041E-05
7.52E+02	2.00454E-05
7.53E+02	2.00899E-05
7.55E+02	2.01334E-05
7.56E+02	2.01753E-05
7.58E+02	2.02182E-05
7.59E+02	2.02603E-05
7.61E+02	2.03046E-05
7.62E+02	2.03479E-05
7.64E+02	2.03919E-05
7.65E+02	2.04352E-05
7.67E+02	2.04805E-05
7.68E+02	2.05258E-05
7.70E+02	2.05697E-05
7.71E+02	2.0614E-05
7.73E+02	2.06607E-05
7.75E+02	2.07053E-05
7.76E+02	2.0753E-05
7.78E+02	2.07971E-05
7.80E+02	2.08421E-05
7.81E+02	2.08917E-05
7.83E+02	2.09353E-05
7.85E+02	2.0981E-05
7.86E+02	2.10304E-05
7.88E+02	2.10734E-05
7.90E+02	2.11218E-05
7.92E+02	2.11692E-05
7.93E+02	2.12167E-05
7.95E+02	2.12633E-05
7.97E+02	2.13119E-05
7.99E+02	2.1359E-05
8.01E+02	2.14067E-05
8.03E+02	2.14556E-05
8.05E+02	2.15022E-05
8.07E+02	2.15523E-05
8.08E+02	2.16015E-05
8.10E+02	2.16472E-05
8.12E+02	2.16977E-05
8.14E+02	2.17429E-05
8.16E+02	2.1797E-05
8.18E+02	2.18424E-05
8.21E+02	2.1892E-05
8.23E+02	2.19434E-05
8.25E+02	2.1988E-05
8.27E+02	2.20423E-05
8.29E+02	2.20918E-05
8.31E+02	2.21397E-05
8.33E+02	2.21934E-05
8.35E+02	2.224E-05
8.38E+02	2.22918E-05
8.40E+02	2.23437E-05
8.42E+02	2.23892E-05
8.45E+02	2.24424E-05
8.47E+02	2.24914E-05
8.49E+02	2.25444E-05
8.52E+02	2.25919E-05
8.54E+02	2.26457E-05
8.56E+02	2.27011E-05
8.59E+02	2.27429E-05
8.61E+02	2.28054E-05
8.64E+02	2.28534E-05
8.66E+02	2.29012E-05
8.69E+02	2.29646E-05
8.71E+02	2.30009E-05
8.74E+02	2.30691E-05
8.76E+02	2.31149E-05
8.79E+02	2.31849E-05
8.80E+02	2.3201E-05
8.80E+02	2.31897E-05
8.81E+02	2.31934E-05
8.82E+02	2.32088E-05
8.82E+02	2.32288E-05
8.83E+02	2.32485E-05
8.84E+02	2.32647E-05
8.85E+02	2.32773E-05
8.85E+02	2.32931E-05
8.86E+02	2.33055E-05
8.87E+02	2.33181E-05
8.87E+02	2.33329E-05
8.88E+02	2.33459E-05
8.89E+02	2.33616E-05
8.90E+02	2.33748E-05
8.90E+02	2.33898E-05
8.91E+02	2.34062E-05
8.92E+02	2.34212E-05
8.93E+02	2.34362E-05
8.94E+02	2.34518E-05
8.94E+02	2.34666E-05
8.95E+02	2.34815E-05
8.96E+02	2.34978E-05
8.97E+02	2.35149E-05
8.98E+02	2.35295E-05
8.98E+02	2.35464E-05
8.99E+02	2.3564E-05
9.00E+02	2.35791E-05
9.01E+02	2.17666E-05
9.02E+02	2.01717E-05
9.03E+02	1.86788E-05
9.04E+02	1.72694E-05
9.05E+02	1.59404E-05
9.06E+02	1.469E-05
9.07E+02	1.34926E-05
9.08E+02	1.24229E-05
9.09E+02	1.13702E-05
9.10E+02	1.04235E-05
9.12E+02	9.49877E-06
9.13E+02	8.65663E-06
9.14E+02	7.87923E-06
9.15E+02	7.12684E-06
9.16E+02	6.44939E-06
9.17E+02	5.79564E-06
9.18E+02	5.20755E-06
9.20E+02	4.65863E-06
9.21E+02	4.15087E-06
9.22E+02	3.68143E-06
9.23E+02	3.2516E-06
9.24E+02	2.8561E-06
9.26E+02	2.49493E-06
9.27E+02	2.16603E-06
9.28E+02	1.86795E-06
9.29E+02	1.59876E-06
9.31E+02	1.35743E-06
9.32E+02	1.1419E-06
9.33E+02	9.50712E-07
9.35E+02	7.82473E-07
9.36E+02	6.35495E-07
9.37E+02	5.08415E-07
9.39E+02	3.99604E-07
9.40E+02	3.07677E-07
9.41E+02	2.31248E-07
9.43E+02	1.68775E-07
9.44E+02	1.18731E-07
9.46E+02	7.97463E-08
9.47E+02	5.04274E-08
9.49E+02	2.93987E-08
9.50E+02	1.53284E-08
9.52E+02	6.81318E-09
9.53E+02	2.38851E-09
9.55E+02	0
9.56E+02	0
9.58E+02	0
9.59E+02	0
9.61E+02	0
9.62E+02	0
9.64E+02	0
9.66E+02	0
9.67E+02	0
9.69E+02	0
9.71E+02	0
9.72E+02	0
9.74E+02	0
9.76E+02	0
9.77E+02	0
9.79E+02	0
9.81E+02	0
9.83E+02	0
9.85E+02	0
9.86E+02	0
9.88E+02	0
9.90E+02	0
9.92E+02	0
9.94E+02	0
9.96E+02	0
9.98E+02	0
1.00E+03	0
1.00E+03	0
1.00E+03	0
1.01E+03	0
1.01E+03	0
1.01E+03	0
1.01E+03	0
1.01E+03	0
1.02E+03	0
1.02E+03	0
1.02E+03	0
1.02E+03	0
1.02E+03	0
1.03E+03	0
1.03E+03	0
1.03E+03	0
1.03E+03	0
1.04E+03	0
1.04E+03	0
1.04E+03	0
1.04E+03	0
1.05E+03	0
1.05E+03	0
1.05E+03	0
1.05E+03	0
1.06E+03	0
1.06E+03	0
1.06E+03	0
1.06E+03	0
1.07E+03	0
1.07E+03	0
1.07E+03	0
1.07E+03	0
1.08E+03	0
1.08E+03	0
1.08E+03	0
zone t="Therrien et al., 2004"                          
 3.21612000E+02         1.55E-08  
 3.26556000E+02         4.34E-08  
 3.31818000E+02         8.08E-08  
 3.37116000E+02         1.31E-07  
 3.42108000E+02         1.91E-07  
 3.46926000E+02         2.62E-07  
 3.51654000E+02         3.42E-07  
 3.55824000E+02         4.23E-07  
 3.60000000E+02         5.11E-07  
 3.64746000E+02         6.24E-07  
 3.69558000E+02         7.51E-07  
 3.74478000E+02         8.90E-07  
 3.79548000E+02         1.05E-06  
 3.84804000E+02         1.23E-06  
 3.90270000E+02         1.43E-06  
 3.95994000E+02         1.66E-06  
 4.02024000E+02         1.91E-06  
 4.08396000E+02         2.22E-06  
 4.15164000E+02         2.56E-06  
 4.21566000E+02         2.89E-06  
 4.27692000E+02         3.25E-06  
 4.33656000E+02         3.60E-06  
 4.39554000E+02         3.97E-06  
 4.45440000E+02         4.37E-06  
 4.51374000E+02         4.79E-06  
 4.57404000E+02         5.22E-06  
 4.63572000E+02         5.71E-06  
 4.69926000E+02         6.22E-06  
 4.76520000E+02         6.77E-06  
 4.83384000E+02         7.36E-06  
 4.90578000E+02         7.99E-06  
 4.98150000E+02         8.66E-06  
 5.04078000E+02         9.18E-06  
 5.10000000E+02         9.69E-06  
 5.17014000E+02         1.03E-05  
 5.23818000E+02         1.08E-05  
 5.30544000E+02         1.13E-05  
 5.37264000E+02         1.18E-05  
 5.44038000E+02         1.23E-05  
 5.50926000E+02         1.27E-05  
 5.57982000E+02         1.31E-05  
 5.65254000E+02         1.35E-05  
 5.72802000E+02         1.38E-05  
 5.80668000E+02         1.42E-05  
 5.88918000E+02         1.46E-05  
 5.97252000E+02         1.49E-05  
 6.05100000E+02         1.52E-05  
 6.11520000E+02         1.55E-05  
 6.18000000E+02         1.57E-05  
 6.25320000E+02         1.60E-05  
 6.32640000E+02         1.62E-05  
 6.40080000E+02         1.66E-05  
 6.47580000E+02         1.69E-05  
 6.55260000E+02         1.70E-05  
 6.63240000E+02         1.74E-05  
 6.71460000E+02         1.77E-05  
 6.80100000E+02         1.80E-05  
 6.89100000E+02         1.83E-05  
 6.97680000E+02         1.85E-05  
 7.05840000E+02         1.88E-05  
 7.13820000E+02         1.91E-05  
 7.21620000E+02         1.93E-05  
 7.29420000E+02         1.96E-05  
 7.37340000E+02         1.98E-05  
 7.45320000E+02         2.01E-05  
 7.53540000E+02         2.03E-05  
 7.61940000E+02         2.06E-05  
 7.70760000E+02         2.07E-05  
 7.79880000E+02         2.11E-05  
 7.89480000E+02         2.14E-05  
 7.98360000E+02         2.15E-05  
 8.06940000E+02         2.19E-05  
 8.15220000E+02         2.20E-05  
 8.23440000E+02         2.23E-05  
 8.31660000E+02         2.25E-05  
 8.39940000E+02         2.27E-05  
 8.48400000E+02         2.30E-05  
 8.57040000E+02         2.31E-05  
 8.65980000E+02         2.33E-05  
 8.75280000E+02         2.36E-05  
 8.84940000E+02         2.38E-05  
 8.92440000E+02         2.39E-05  
 9.00000000E+02         2.41E-05  
 9.08880000E+02         1.80E-05  
 9.17400000E+02         1.33E-05  
 9.19440000E+02         1.23E-05  
 9.21240000E+02         1.15E-05  
 9.22800000E+02         1.07E-05  
 9.24360000E+02         1.00E-05  
 9.25920000E+02         9.34E-06  
 9.27480000E+02         8.68E-06  
 9.28980000E+02         8.05E-06  
 9.30540000E+02         7.46E-06  
 9.32100000E+02         6.88E-06  
 9.33600000E+02         6.32E-06  
 9.35160000E+02         5.79E-06  
 9.36720000E+02         5.26E-06  
 9.38220000E+02         4.77E-06  
 9.39780000E+02         4.29E-06  
 9.41340000E+02         3.84E-06  
 9.42840000E+02         3.42E-06  
 9.44400000E+02         3.01E-06  
 9.45960000E+02         2.62E-06  
 9.47460000E+02         2.27E-06  
 9.49020000E+02         1.93E-06  
 9.50580000E+02         1.60E-06  
 9.52140000E+02         1.31E-06  
 9.53640000E+02         1.04E-06  
 9.55200000E+02         7.89E-07  
 9.56760000E+02         5.67E-07  
 9.58320000E+02         3.71E-07  
 9.59160000E+02         2.75E-07  
 9.60000000E+02         1.88E-07 
