TITLE = "Profiles along polylines"
VARIABLES = "DIST" "PRESSURE1"    
ZONE T="TIME=0.000000000000e+000" 
0                 1000         
0.05              1000         
0.1               1000         
0.15              1000         
0.2               1000         
0.25              1000         
0.3               1000         
0.35              852.9802838  
0.4               748.9625886  
0.45              664.9451881  
0.5               591.2665345  
0.55              523.5375816  
0.6               459.5741568  
0.65              398.177608   
0.7               338.6230295  
0.75              280.4303981  
0.8               223.2548379  
0.85              166.8300578  
0.9               110.9369942  
0.95              55.3850705   
1                 0            
                             