TITLE = "Profiles along polylines"
VARIABLES = "DIST" "PRESSURE1"    
ZONE T="TIME=0.000000000000e+000" 
0                    1000       
0.05                 1000       
0.1                  1000       
0.15                 1000       
0.2                  1000       
0.25                 1000       
0.3                  1000       
0.35                 572.996467 
0.4                  436.6431482
0.45                 326.5566341
0.5                  250.4930821
0.55                 192.4603103
0.6                  148.1606745
0.65                 113.7163091
0.7                  86.67867856
0.75                 65.18290981
0.8                  47.81683334
0.85                 33.46215407
0.9                  21.20785639
0.95                 10.28216676
1                    0          
                             