 TITLE = "Time curves in points"
 VARIABLES = "TIME "  "Tracer" 
 ZONE T="POINT=POINT4"
0.000000000000e+00 0.000000000000e+00 
2.160000000000e+04 0.000000000000e+00 
4.320000000000e+04 7.934063251165e-25 
6.480000000000e+04 4.452280484381e-23 
8.640000000000e+04 9.237123924389e-22 
1.080000000000e+05 1.167603756801e-20 
1.296000000000e+05 1.076942385646e-19 
1.512000000000e+05 7.912193781127e-19 
1.728000000000e+05 4.899219675562e-18 
1.944000000000e+05 2.639309599156e-17 
2.160000000000e+05 1.264665696947e-16 
2.376000000000e+05 5.474805077741e-16 
2.592000000000e+05 2.167054437253e-15 
2.808000000000e+05 7.919752141643e-15 
3.024000000000e+05 2.692631627749e-14 
3.240000000000e+05 8.572485518745e-14 
3.456000000000e+05 2.569778098345e-13 
3.672000000000e+05 7.287775437186e-13 
3.888000000000e+05 1.963466209117e-12 
4.104000000000e+05 5.044134628299e-12 
4.320000000000e+05 1.239700186964e-11 
4.536000000000e+05 2.923474699094e-11 
4.752000000000e+05 6.632777117326e-11 
4.968000000000e+05 1.451306290493e-10 
5.184000000000e+05 3.069382053728e-10 
5.400000000000e+05 6.287094348165e-10 
5.616000000000e+05 1.249577153036e-09 
5.832000000000e+05 2.413977674614e-09 
6.048000000000e+05 4.539900619663e-09 
6.264000000000e+05 8.324097353324e-09 
6.480000000000e+05 1.490027825545e-08 
6.696000000000e+05 2.607144750968e-08 
6.912000000000e+05 4.464356001565e-08 
7.128000000000e+05 7.489459024900e-08 
7.344000000000e+05 1.232207214618e-07 
7.560000000000e+05 1.990094777162e-07 
7.776000000000e+05 3.157979060247e-07 
7.992000000000e+05 4.927819498854e-07 
8.208000000000e+05 7.567505004506e-07 
8.424000000000e+05 1.144523694380e-06 
8.640000000000e+05 1.705979334298e-06 
8.856000000000e+05 2.507753277674e-06 
9.072000000000e+05 3.637698780281e-06 
9.288000000000e+05 5.210185666713e-06 
9.504000000000e+05 7.372312516969e-06 
9.720000000000e+05 1.031109362740e-05 
9.936000000000e+05 1.426166728994e-05 
1.015200000000e+06 1.951655308447e-05 
1.036800000000e+06 2.643596369800e-05 
1.058400000000e+06 3.545915172281e-05 
1.080000000000e+06 4.711674457845e-05 
1.101600000000e+06 6.204399185882e-05 
1.123200000000e+06 8.099481986327e-05 
1.144800000000e+06 1.048565587068e-04 
1.166400000000e+06 1.346651791284e-04 
1.188000000000e+06 1.716208498159e-04 
1.209600000000e+06 2.171036025918e-04 
1.231200000000e+06 2.726888729137e-04 
1.252800000000e+06 3.401626675030e-04 
1.274400000000e+06 4.215361000445e-04 
1.296000000000e+06 5.190590301878e-04 
1.317600000000e+06 6.352325407642e-04 
1.339200000000e+06 7.728199932727e-04 
1.360800000000e+06 9.348564122160e-04 
1.382400000000e+06 1.124655964557e-03 
1.404000000000e+06 1.345817321051e-03 
1.425600000000e+06 1.602226711029e-03 
1.447200000000e+06 1.898058510782e-03 
1.468800000000e+06 2.237773237392e-03 
1.490400000000e+06 2.626112853948e-03 
1.512000000000e+06 3.068093327892e-03 
1.533600000000e+06 3.568994420955e-03 
1.555200000000e+06 4.134346726113e-03 
1.576800000000e+06 4.769916003430e-03 
1.598400000000e+06 5.481684901980e-03 
1.620000000000e+06 6.275832188588e-03 
1.641600000000e+06 7.158709635406e-03 
1.663200000000e+06 8.136816746856e-03 
1.684800000000e+06 9.216773531851e-03 
1.706400000000e+06 1.040529154916e-02 
1.728000000000e+06 1.170914347212e-02 
1.749600000000e+06 1.313513143329e-02 
1.771200000000e+06 1.469005442057e-02 
1.792800000000e+06 1.638067500284e-02 
1.814400000000e+06 1.821368566645e-02 
1.836000000000e+06 2.019567504341e-02 
1.857600000000e+06 2.233309430803e-02 
1.879200000000e+06 2.463222401168e-02 
1.900800000000e+06 2.709914161549e-02 
1.922400000000e+06 2.973968996776e-02 
1.944000000000e+06 3.255944695827e-02 
1.965600000000e+06 3.556369656442e-02 
1.987200000000e+06 3.875740148590e-02 
2.008800000000e+06 4.214517754416e-02 
2.030400000000e+06 4.573127000278e-02 
2.052000000000e+06 4.951953194267e-02 
2.073600000000e+06 5.351340480457e-02 
2.095200000000e+06 5.771590118915e-02 
2.116800000000e+06 6.212958998338e-02 
2.138400000000e+06 6.675658386026e-02 
2.160000000000e+06 7.159852917866e-02 
2.181600000000e+06 7.665659828974e-02 
2.203200000000e+06 8.193148423780e-02 
2.224800000000e+06 8.742339782562e-02 
2.246400000000e+06 9.313206699769e-02 
2.268000000000e+06 9.905673847961e-02 
2.289600000000e+06 1.051961815983e-01 
2.311200000000e+06 1.115486941950e-01 
2.332800000000e+06 1.181121105322e-01 
2.354400000000e+06 1.248838110868e-01 
2.376000000000e+06 1.318607341120e-01 
2.397600000000e+06 1.390393888471e-01 
2.419200000000e+06 1.464158702449e-01 
2.440800000000e+06 1.539858750862e-01 
2.462400000000e+06 1.617447193474e-01 
2.484000000000e+06 1.696873566828e-01 
2.505600000000e+06 1.778083978882e-01 
2.527200000000e+06 1.861021312085e-01 
2.548800000000e+06 1.945625433558e-01 
2.570400000000e+06 2.031833411071e-01 
2.592000000000e+06 2.119579733530e-01 
2.613600000000e+06 2.208796534742e-01 
2.635200000000e+06 2.299413819257e-01 
2.656800000000e+06 2.391359689153e-01 
2.678400000000e+06 2.484560570668e-01 
2.700000000000e+06 2.578941439666e-01 
2.721600000000e+06 2.674426044962e-01 
2.743200000000e+06 2.770937128611e-01 
2.764800000000e+06 2.868396642333e-01 
2.786400000000e+06 2.966725959295e-01 
2.808000000000e+06 3.065846080572e-01 
2.829600000000e+06 3.165677835627e-01 
2.851200000000e+06 3.266142076279e-01 
2.872800000000e+06 3.367159863630e-01 
2.894400000000e+06 3.468652647535e-01 
2.916000000000e+06 3.570542438233e-01 
2.937600000000e+06 3.672751969826e-01 
2.959200000000e+06 3.775204855362e-01 
2.980800000000e+06 3.877825733302e-01 
3.002400000000e+06 3.980540405245e-01 
3.024000000000e+06 4.083275964803e-01 
3.045600000000e+06 4.185960917572e-01 
3.067200000000e+06 4.288525292204e-01 
3.088800000000e+06 4.390900742605e-01 
3.110400000000e+06 4.493020641335e-01 
3.132000000000e+06 4.594820164316e-01 
3.153600000000e+06 4.696236366986e-01 
3.175200000000e+06 4.797208252072e-01 
3.196800000000e+06 4.897676829163e-01 
3.218400000000e+06 4.997585166315e-01 
3.240000000000e+06 5.096878433911e-01 
3.261600000000e+06 5.195503941044e-01 
3.283200000000e+06 5.293411164678e-01 
3.304800000000e+06 5.390551771883e-01 
3.326400000000e+06 5.486879635429e-01 
3.348000000000e+06 5.582350843042e-01 
3.369600000000e+06 5.676923700635e-01 
3.391200000000e+06 5.770558729818e-01 
3.412800000000e+06 5.863218660009e-01 
3.434400000000e+06 5.954868415457e-01 
3.456000000000e+06 6.045475097501e-01 
3.477600000000e+06 6.135007962365e-01 
3.499200000000e+06 6.223438394813e-01 
3.520800000000e+06 6.310739877964e-01 
3.542400000000e+06 6.396887959567e-01 
3.564000000000e+06 6.481860215035e-01 
3.585600000000e+06 6.565636207524e-01 
3.607200000000e+06 6.648197445333e-01 
3.628800000000e+06 6.729527336908e-01 
3.650400000000e+06 6.809611143692e-01 
3.672000000000e+06 6.888435931104e-01 
3.693600000000e+06 6.965990517856e-01 
3.715200000000e+06 7.042265423879e-01 
3.736800000000e+06 7.117252817039e-01 
3.758400000000e+06 7.190946458903e-01 
3.780000000000e+06 7.263341649714e-01 
3.801600000000e+06 7.334435172796e-01 
3.823200000000e+06 7.404225238561e-01 
3.844800000000e+06 7.472711428282e-01 
3.866400000000e+06 7.539894637811e-01 
3.888000000000e+06 7.605777021365e-01 
3.909600000000e+06 7.670361935557e-01 
3.931200000000e+06 7.733653883764e-01 
3.952800000000e+06 7.795658460980e-01 
3.974400000000e+06 7.856382299260e-01 
3.996000000000e+06 7.915833013848e-01 
4.017600000000e+06 7.974019150093e-01 
4.039200000000e+06 8.030950131239e-01 
4.060800000000e+06 8.086636207156e-01 
4.082400000000e+06 8.141088404092e-01 
4.104000000000e+06 8.194318475505e-01 
4.125600000000e+06 8.246338854025e-01 
4.147200000000e+06 8.297162604601e-01 
4.168800000000e+06 8.346803378871e-01 
4.190400000000e+06 8.395275370787e-01 
4.212000000000e+06 8.442593273530e-01 
4.233600000000e+06 8.488772237740e-01 
4.255200000000e+06 8.533827831064e-01 
4.276800000000e+06 8.577775999063e-01 
4.298400000000e+06 8.620633027463e-01 
4.320000000000e+06 8.662415505760e-01 
4.341600000000e+06 8.703140292196e-01 
4.363200000000e+06 8.742824480077e-01 
4.384800000000e+06 8.781485365449e-01 
4.406400000000e+06 8.819140416112e-01 
4.428000000000e+06 8.855807241961e-01 
4.449600000000e+06 8.891503566638e-01 
4.471200000000e+06 8.926247200484e-01 
4.492800000000e+06 8.960056014761e-01 
4.514400000000e+06 8.992947917134e-01 
4.536000000000e+06 9.024940828380e-01 
4.557600000000e+06 9.056052660306e-01 
4.579200000000e+06 9.086301294841e-01 
4.600800000000e+06 9.115704564290e-01 
4.622400000000e+06 9.144280232707e-01 
4.644000000000e+06 9.172045978356e-01 
4.665600000000e+06 9.199019377253e-01 
4.687200000000e+06 9.225217887725e-01 
4.708800000000e+06 9.250658835983e-01 
4.730400000000e+06 9.275359402661e-01 
4.752000000000e+06 9.299336610298e-01 
4.773600000000e+06 9.322607311726e-01 
4.795200000000e+06 9.345188179335e-01 
4.816800000000e+06 9.367095695179e-01 
4.838400000000e+06 9.388346141905e-01 
4.860000000000e+06 9.408955594448e-01 
4.881600000000e+06 9.428939912487e-01 
4.903200000000e+06 9.448314733621e-01 
4.924800000000e+06 9.467095467226e-01 
4.946400000000e+06 9.485297288978e-01 
4.968000000000e+06 9.502935136005e-01 
4.989600000000e+06 9.520023702636e-01 
5.011200000000e+06 9.536577436725e-01 
5.032800000000e+06 9.552610536524e-01 
5.054400000000e+06 9.568136948065e-01 
5.076000000000e+06 9.583170363042e-01 
5.097600000000e+06 9.597724217156e-01 
5.119200000000e+06 9.611811688896e-01 
5.140800000000e+06 9.625445698748e-01 
5.162400000000e+06 9.638638908782e-01 
5.184000000000e+06 9.651403722625e-01 
5.205600000000e+06 9.663752285768e-01 
5.227200000000e+06 9.675696486214e-01 
5.248800000000e+06 9.687247955414e-01 
5.270400000000e+06 9.698418069508e-01 
5.292000000000e+06 9.709217950824e-01 
5.313600000000e+06 9.719658469620e-01 
5.335200000000e+06 9.729750246069e-01 
5.356800000000e+06 9.739503652449e-01 
5.378400000000e+06 9.748928815534e-01 
5.400000000000e+06 9.758035619165e-01 
5.421600000000e+06 9.766833706989e-01 
5.443200000000e+06 9.775332485350e-01 
5.464800000000e+06 9.783541126317e-01 
5.486400000000e+06 9.791468570842e-01 
5.508000000000e+06 9.799123532023e-01 
5.529600000000e+06 9.806514498479e-01 
5.551200000000e+06 9.813649737806e-01 
5.572800000000e+06 9.820537300116e-01 
5.594400000000e+06 9.827185021644e-01 
5.616000000000e+06 9.833600528417e-01 
5.637600000000e+06 9.839791239967e-01 
5.659200000000e+06 9.845764373095e-01 
5.680800000000e+06 9.851526945661e-01 
5.702400000000e+06 9.857085780401e-01 
5.724000000000e+06 9.862447508766e-01 
5.745600000000e+06 9.867618574771e-01 
5.767200000000e+06 9.872605238848e-01 
5.788800000000e+06 9.877413581701e-01 
5.810400000000e+06 9.882049508154e-01 
5.832000000000e+06 9.886518750988e-01 
5.853600000000e+06 9.890826874762e-01 
5.875200000000e+06 9.894979279613e-01 
5.896800000000e+06 9.898981205032e-01 
5.918400000000e+06 9.902837733610e-01 
5.940000000000e+06 9.906553794756e-01 
5.961600000000e+06 9.910134168373e-01 
5.983200000000e+06 9.913583488502e-01 
6.004800000000e+06 9.916906246921e-01 
6.026400000000e+06 9.920106796703e-01 
6.048000000000e+06 9.923189355723e-01 
6.069600000000e+06 9.926158010125e-01 
6.091200000000e+06 9.929016717732e-01 
6.112800000000e+06 9.931769311411e-01 
6.134400000000e+06 9.934419502378e-01 
6.156000000000e+06 9.936970883452e-01 
6.177600000000e+06 9.939426932261e-01 
6.199200000000e+06 9.941791014378e-01 
6.220800000000e+06 9.944066386410e-01 
6.242400000000e+06 9.946256199029e-01 
6.264000000000e+06 9.948363499939e-01 
6.285600000000e+06 9.950391236791e-01 
6.307200000000e+06 9.952342260035e-01 
6.328800000000e+06 9.954219325717e-01 
6.350400000000e+06 9.956025098212e-01 
6.372000000000e+06 9.957762152901e-01 
6.393600000000e+06 9.959432978792e-01 
6.415200000000e+06 9.961039981075e-01 
6.436800000000e+06 9.962585483628e-01 
6.458400000000e+06 9.964071731455e-01 
6.480000000000e+06 9.965500893077e-01 
6.501600000000e+06 9.966875062855e-01 
6.523200000000e+06 9.968196263267e-01 
6.544800000000e+06 9.969466447122e-01 
6.566400000000e+06 9.970687499719e-01 
6.588000000000e+06 9.971861240957e-01 
6.609600000000e+06 9.972989427385e-01 
6.631200000000e+06 9.974073754198e-01 
6.652800000000e+06 9.975115857192e-01 
6.674400000000e+06 9.976117314649e-01 
6.696000000000e+06 9.977079649190e-01 
6.717600000000e+06 9.978004329561e-01 
6.739200000000e+06 9.978892772386e-01 
6.760800000000e+06 9.979746343857e-01 
6.782400000000e+06 9.980566361388e-01 
6.804000000000e+06 9.981354095216e-01 
6.825600000000e+06 9.982110769961e-01 
6.847200000000e+06 9.982837566134e-01 
6.868800000000e+06 9.983535621611e-01 
6.890400000000e+06 9.984206033057e-01 
6.912000000000e+06 9.984849857312e-01 
6.933600000000e+06 9.985468112732e-01 
6.955200000000e+06 9.986061780496e-01 
6.976800000000e+06 9.986631805867e-01 
6.998400000000e+06 9.987179099421e-01 
7.020000000000e+06 9.987704538234e-01 
7.041600000000e+06 9.988208967034e-01 
7.063200000000e+06 9.988693199322e-01 
7.084800000000e+06 9.989158018448e-01 
7.106400000000e+06 9.989604178663e-01 
7.128000000000e+06 9.990032406138e-01 
7.149600000000e+06 9.990443399938e-01 
7.171200000000e+06 9.990837832984e-01 
7.192800000000e+06 9.991216352970e-01 
7.214400000000e+06 9.991579583254e-01 
7.236000000000e+06 9.991928123727e-01 
7.257600000000e+06 9.992262551640e-01 
7.279200000000e+06 9.992583422420e-01 
7.300800000000e+06 9.992891270448e-01 
7.322400000000e+06 9.993186609814e-01 
7.344000000000e+06 9.993469935052e-01 
7.365600000000e+06 9.993741721840e-01 
7.387200000000e+06 9.994002427689e-01 
7.408800000000e+06 9.994252492602e-01 
7.430400000000e+06 9.994492339707e-01 
7.452000000000e+06 9.994722375881e-01 
7.473600000000e+06 9.994942992338e-01 
7.495200000000e+06 9.995154565209e-01 
7.516800000000e+06 9.995357456096e-01 
7.538400000000e+06 9.995552012605e-01 
7.560000000000e+06 9.995738568870e-01 
7.581600000000e+06 9.995917446048e-01 
7.603200000000e+06 9.996088952802e-01 
7.624800000000e+06 9.996253385767e-01 
7.646400000000e+06 9.996411030003e-01 
7.668000000000e+06 9.996562159420e-01 
7.689600000000e+06 9.996707037207e-01 
7.711200000000e+06 9.996845916224e-01 
7.732800000000e+06 9.996979039401e-01 
7.754400000000e+06 9.997106640108e-01 
7.776000000000e+06 9.997228942518e-01 
7.797600000000e+06 9.997346161955e-01 
7.819200000000e+06 9.997458505232e-01 
7.840800000000e+06 9.997566170974e-01 
7.862400000000e+06 9.997669349932e-01 
7.884000000000e+06 9.997768225283e-01 
7.905600000000e+06 9.997862972918e-01 
7.927200000000e+06 9.997953761727e-01 
7.948800000000e+06 9.998040753863e-01 
7.970400000000e+06 9.998124105007e-01 
7.992000000000e+06 9.998203964611e-01 
8.013600000000e+06 9.998280476146e-01 
8.035200000000e+06 9.998353777328e-01 
8.056800000000e+06 9.998424000348e-01 
8.078400000000e+06 9.998491272078e-01 
8.100000000000e+06 9.998555714286e-01 
8.121600000000e+06 9.998617443832e-01 
8.143200000000e+06 9.998676572860e-01 
8.164800000000e+06 9.998733208981e-01 
8.186400000000e+06 9.998787455456e-01 
8.208000000000e+06 9.998839411360e-01 
8.229600000000e+06 9.998889171751e-01 
8.251200000000e+06 9.998936827829e-01 
8.272800000000e+06 9.998982467084e-01 
8.294400000000e+06 9.999026173449e-01 
8.316000000000e+06 9.999068027433e-01 
8.337600000000e+06 9.999108106263e-01 
8.359200000000e+06 9.999146484012e-01 
8.380800000000e+06 9.999183231725e-01 
8.402400000000e+06 9.999218417538e-01 
8.424000000000e+06 9.999252106797e-01 
8.445600000000e+06 9.999284362165e-01 
8.467200000000e+06 9.999315243735e-01 
8.488800000000e+06 9.999344809127e-01 
8.510400000000e+06 9.999373113593e-01 
8.532000000000e+06 9.999400210105e-01 
8.553600000000e+06 9.999426149456e-01 
8.575200000000e+06 9.999450980338e-01 
8.596800000000e+06 9.999474749433e-01 
8.618400000000e+06 9.999497501493e-01 
8.640000000000e+06 9.999519279416e-01 
8.661600000000e+06 9.999540124324e-01 
8.683200000000e+06 9.999560075631e-01 
8.704800000000e+06 9.999579171117e-01 
8.726400000000e+06 9.999597446991e-01 
8.748000000000e+06 9.999614937955e-01 
8.769600000000e+06 9.999631677267e-01 
8.791200000000e+06 9.999647696801e-01 
8.812800000000e+06 9.999663027097e-01 
8.834400000000e+06 9.999677697425e-01 
8.856000000000e+06 9.999691735828e-01 
8.877600000000e+06 9.999705169179e-01 
8.899200000000e+06 9.999718023225e-01 
8.920800000000e+06 9.999730322635e-01 
8.942400000000e+06 9.999742091042e-01 
8.964000000000e+06 9.999753351089e-01 
8.985600000000e+06 9.999764124469e-01 
9.007200000000e+06 9.999774431959e-01 
9.028800000000e+06 9.999784293467e-01 
9.050400000000e+06 9.999793728060e-01 
9.072000000000e+06 9.999802754002e-01 
9.093600000000e+06 9.999811388787e-01 
9.115200000000e+06 9.999819649171e-01 
9.136800000000e+06 9.999827551202e-01 
9.158400000000e+06 9.999835110249e-01 
9.180000000000e+06 9.999842341033e-01 
9.201600000000e+06 9.999849257650e-01 
9.223200000000e+06 9.999855873599e-01 
9.244800000000e+06 9.999862201808e-01 
9.266400000000e+06 9.999868254656e-01 
9.288000000000e+06 9.999874043995e-01 
9.309600000000e+06 9.999879581175e-01 
9.331200000000e+06 9.999884877064e-01 
9.352800000000e+06 9.999889942065e-01 
9.374400000000e+06 9.999894786141e-01 
9.396000000000e+06 9.999899418830e-01 
9.417600000000e+06 9.999903849261e-01 
9.439200000000e+06 9.999908086176e-01 
9.460800000000e+06 9.999912137943e-01 
9.482400000000e+06 9.999916012572e-01 
9.504000000000e+06 9.999919717732e-01 
9.525600000000e+06 9.999923260763e-01 
9.547200000000e+06 9.999926648690e-01 
9.568800000000e+06 9.999929888239e-01 
9.590400000000e+06 9.999932985845e-01 
9.612000000000e+06 9.999935947671e-01 
9.633600000000e+06 9.999938779612e-01 
9.655200000000e+06 9.999941487311e-01 
9.676800000000e+06 9.999944076169e-01 
9.698400000000e+06 9.999946551355e-01 
9.720000000000e+06 9.999948917814e-01 
9.741600000000e+06 9.999951180281e-01 
9.763200000000e+06 9.999953343284e-01 
9.784800000000e+06 9.999955411158e-01 
9.806400000000e+06 9.999957388050e-01 
9.828000000000e+06 9.999959277928e-01 
9.849600000000e+06 9.999961084590e-01 
9.871200000000e+06 9.999962811669e-01 
9.892800000000e+06 9.999964462640e-01 
9.914400000000e+06 9.999966040830e-01 
9.936000000000e+06 9.999967549421e-01 
9.957600000000e+06 9.999968991457e-01 
9.979200000000e+06 9.999970369850e-01 
1.000080000000e+07 9.999971687386e-01 
1.002240000000e+07 9.999972946730e-01 
1.004400000000e+07 9.999974150433e-01 
1.006560000000e+07 9.999975300934e-01 
1.008720000000e+07 9.999976400565e-01 
1.010880000000e+07 9.999977451558e-01 
1.013040000000e+07 9.999978456048e-01 
1.015200000000e+07 9.999979416078e-01 
1.017360000000e+07 9.999980333599e-01 
1.019520000000e+07 9.999981210481e-01 
1.021680000000e+07 9.999982048509e-01 
1.023840000000e+07 9.999982849393e-01 
1.026000000000e+07 9.999983614767e-01 
1.028160000000e+07 9.999984346194e-01 
1.030320000000e+07 9.999985045169e-01 
1.032480000000e+07 9.999985713121e-01 
1.034640000000e+07 9.999986351418e-01 
1.036800000000e+07 9.999986961366e-01 
1.038960000000e+07 9.999987544217e-01 
1.041120000000e+07 9.999988101166e-01 
1.043280000000e+07 9.999988633355e-01 
1.045440000000e+07 9.999989141879e-01 
1.047600000000e+07 9.999989627782e-01 
1.049760000000e+07 9.999990092064e-01 
1.051920000000e+07 9.999990535681e-01 
1.054080000000e+07 9.999990959546e-01 
1.056240000000e+07 9.999991364533e-01 
1.058400000000e+07 9.999991751477e-01 
1.060560000000e+07 9.999992121177e-01 
1.062720000000e+07 9.999992474397e-01 
1.064880000000e+07 9.999992811867e-01 
1.067040000000e+07 9.999993134284e-01 
1.069200000000e+07 9.999993442316e-01 
1.071360000000e+07 9.999993736600e-01 
1.073520000000e+07 9.999994017747e-01 
1.075680000000e+07 9.999994286339e-01 
1.077840000000e+07 9.999994542934e-01 
1.080000000000e+07 9.999994788064e-01 
