 TITLE = "Profiles along polylines"
 VARIABLES = "DIST" "PRESSURE1" "Tracer" 
 ZONE T="TIME=0.000000000000e+00"
0.000000000000e+00 9.806700000000e+04 1.000000000000e+00 
3.333333330000e-01 9.806700000000e+04 0.000000000000e+00 
6.666666670000e-01 9.806700000000e+04 0.000000000000e+00 
1.000000000000e+00 9.806700000000e+04 0.000000000000e+00 
1.333333333000e+00 9.806700000000e+04 0.000000000000e+00 
1.666666667000e+00 9.806700000000e+04 0.000000000000e+00 
2.000000000000e+00 9.806700000000e+04 0.000000000000e+00 
2.333333333000e+00 9.806700000000e+04 0.000000000000e+00 
2.666666667000e+00 9.806700000000e+04 0.000000000000e+00 
3.000000000000e+00 9.806700000000e+04 0.000000000000e+00 
3.333333333000e+00 9.806700000000e+04 0.000000000000e+00 
3.666666667000e+00 9.806700000000e+04 0.000000000000e+00 
4.000000000000e+00 9.806700000000e+04 0.000000000000e+00 
4.333333333000e+00 9.806700000000e+04 0.000000000000e+00 
4.666666667000e+00 9.806700000000e+04 0.000000000000e+00 
5.000000000000e+00 9.806700000000e+04 0.000000000000e+00 
5.333333333000e+00 9.806700000000e+04 0.000000000000e+00 
5.666666667000e+00 9.806700000000e+04 0.000000000000e+00 
6.000000000000e+00 9.806700000000e+04 0.000000000000e+00 
6.333333333000e+00 9.806700000000e+04 0.000000000000e+00 
6.666666667000e+00 9.806700000000e+04 0.000000000000e+00 
7.000000000000e+00 9.806700000000e+04 0.000000000000e+00 
7.333333333000e+00 9.806700000000e+04 0.000000000000e+00 
7.666666667000e+00 9.806700000000e+04 0.000000000000e+00 
8.000000000000e+00 9.806700000000e+04 0.000000000000e+00 
8.333333333000e+00 9.806700000000e+04 0.000000000000e+00 
8.666666667000e+00 9.806700000000e+04 0.000000000000e+00 
9.000000000000e+00 9.806700000000e+04 0.000000000000e+00 
9.333333333000e+00 9.806700000000e+04 0.000000000000e+00 
9.666666667000e+00 9.806700000000e+04 0.000000000000e+00 
1.000000000000e+01 9.806700000000e+04 0.000000000000e+00 
1.033333333000e+01 9.806700000000e+04 0.000000000000e+00 
1.066666667000e+01 9.806700000000e+04 0.000000000000e+00 
1.100000000000e+01 9.806700000000e+04 0.000000000000e+00 
1.133333333000e+01 9.806700000000e+04 0.000000000000e+00 
1.166666667000e+01 9.806700000000e+04 0.000000000000e+00 
1.200000000000e+01 9.806700000000e+04 0.000000000000e+00 
1.233333333000e+01 9.806700000000e+04 0.000000000000e+00 
1.266666667000e+01 9.806700000000e+04 0.000000000000e+00 
1.300000000000e+01 9.806700000000e+04 0.000000000000e+00 
1.333333333000e+01 9.806700000000e+04 0.000000000000e+00 
1.366666667000e+01 9.806700000000e+04 0.000000000000e+00 
1.400000000000e+01 9.806700000000e+04 0.000000000000e+00 
1.433333333000e+01 9.806700000000e+04 0.000000000000e+00 
1.466666667000e+01 9.806700000000e+04 0.000000000000e+00 
1.500000000000e+01 9.806700000000e+04 0.000000000000e+00 
1.533333333000e+01 9.806700000000e+04 0.000000000000e+00 
1.566666667000e+01 9.806700000000e+04 0.000000000000e+00 
1.600000000000e+01 9.806700000000e+04 0.000000000000e+00 
1.633333333000e+01 9.806700000000e+04 0.000000000000e+00 
1.666666667000e+01 9.806700000000e+04 0.000000000000e+00 
1.700000000000e+01 9.806700000000e+04 0.000000000000e+00 
1.733333333000e+01 9.806700000000e+04 0.000000000000e+00 
1.766666667000e+01 9.806700000000e+04 0.000000000000e+00 
1.800000000000e+01 9.806700000000e+04 0.000000000000e+00 
1.833333333000e+01 9.806700000000e+04 0.000000000000e+00 
1.866666667000e+01 9.806700000000e+04 0.000000000000e+00 
1.900000000000e+01 9.806700000000e+04 0.000000000000e+00 
1.933333333000e+01 9.806700000000e+04 0.000000000000e+00 
1.966666667000e+01 9.806700000000e+04 0.000000000000e+00 
2.000000000000e+01 9.806700000000e+04 0.000000000000e+00 
2.033333333000e+01 9.806700000000e+04 0.000000000000e+00 
2.066666667000e+01 9.806700000000e+04 0.000000000000e+00 
2.100000000000e+01 9.806700000000e+04 0.000000000000e+00 
2.133333333000e+01 9.806700000000e+04 0.000000000000e+00 
2.166666667000e+01 9.806700000000e+04 0.000000000000e+00 
2.200000000000e+01 9.806700000000e+04 0.000000000000e+00 
2.233333333000e+01 9.806700000000e+04 0.000000000000e+00 
2.266666667000e+01 9.806700000000e+04 0.000000000000e+00 
2.300000000000e+01 9.806700000000e+04 0.000000000000e+00 
2.333333333000e+01 9.806700000000e+04 0.000000000000e+00 
2.366666667000e+01 9.806700000000e+04 0.000000000000e+00 
2.400000000000e+01 9.806700000000e+04 0.000000000000e+00 
2.433333333000e+01 9.806700000000e+04 0.000000000000e+00 
2.466666667000e+01 9.806700000000e+04 0.000000000000e+00 
2.500000000000e+01 9.806700000000e+04 0.000000000000e+00 
2.533333333000e+01 9.806700000000e+04 0.000000000000e+00 
2.566666667000e+01 9.806700000000e+04 0.000000000000e+00 
2.600000000000e+01 9.806700000000e+04 0.000000000000e+00 
2.633333333000e+01 9.806700000000e+04 0.000000000000e+00 
2.666666667000e+01 9.806700000000e+04 0.000000000000e+00 
2.700000000000e+01 9.806700000000e+04 0.000000000000e+00 
2.733333333000e+01 9.806700000000e+04 0.000000000000e+00 
2.766666667000e+01 9.806700000000e+04 0.000000000000e+00 
2.800000000000e+01 9.806700000000e+04 0.000000000000e+00 
2.833333333000e+01 9.806700000000e+04 0.000000000000e+00 
2.866666667000e+01 9.806700000000e+04 0.000000000000e+00 
2.900000000000e+01 9.806700000000e+04 0.000000000000e+00 
2.933333333000e+01 9.806700000000e+04 0.000000000000e+00 
2.966666667000e+01 9.806700000000e+04 0.000000000000e+00 
3.000000000000e+01 9.806700000000e+04 0.000000000000e+00 
3.033333333000e+01 9.806700000000e+04 0.000000000000e+00 
3.066666667000e+01 9.806700000000e+04 0.000000000000e+00 
3.100000000000e+01 9.806700000000e+04 0.000000000000e+00 
3.133333333000e+01 9.806700000000e+04 0.000000000000e+00 
3.166666667000e+01 9.806700000000e+04 0.000000000000e+00 
3.200000000000e+01 9.806700000000e+04 0.000000000000e+00 
3.233333333000e+01 9.806700000000e+04 0.000000000000e+00 
3.266666667000e+01 9.806700000000e+04 0.000000000000e+00 
3.300000000000e+01 9.806700000000e+04 0.000000000000e+00 
3.333333333000e+01 9.806700000000e+04 0.000000000000e+00 
3.366666667000e+01 9.806700000000e+04 0.000000000000e+00 
3.400000000000e+01 9.806700000000e+04 0.000000000000e+00 
3.433333333000e+01 9.806700000000e+04 0.000000000000e+00 
3.466666667000e+01 9.806700000000e+04 0.000000000000e+00 
3.500000000000e+01 9.806700000000e+04 0.000000000000e+00 
3.533333333000e+01 9.806700000000e+04 0.000000000000e+00 
3.566666667000e+01 9.806700000000e+04 0.000000000000e+00 
3.600000000000e+01 9.806700000000e+04 0.000000000000e+00 
3.633333333000e+01 9.806700000000e+04 0.000000000000e+00 
3.666666667000e+01 9.806700000000e+04 0.000000000000e+00 
3.700000000000e+01 9.806700000000e+04 0.000000000000e+00 
3.733333333000e+01 9.806700000000e+04 0.000000000000e+00 
3.766666667000e+01 9.806700000000e+04 0.000000000000e+00 
3.800000000000e+01 9.806700000000e+04 0.000000000000e+00 
3.833333333000e+01 9.806700000000e+04 0.000000000000e+00 
3.866666667000e+01 9.806700000000e+04 0.000000000000e+00 
3.900000000000e+01 9.806700000000e+04 0.000000000000e+00 
3.933333333000e+01 9.806700000000e+04 0.000000000000e+00 
3.966666667000e+01 9.806700000000e+04 0.000000000000e+00 
4.000000000000e+01 9.806700000000e+04 0.000000000000e+00 
4.033333333000e+01 9.806700000000e+04 0.000000000000e+00 
4.066666667000e+01 9.806700000000e+04 0.000000000000e+00 
4.100000000000e+01 9.806700000000e+04 0.000000000000e+00 
4.133333333000e+01 9.806700000000e+04 0.000000000000e+00 
4.166666667000e+01 9.806700000000e+04 0.000000000000e+00 
4.200000000000e+01 9.806700000000e+04 0.000000000000e+00 
4.233333333000e+01 9.806700000000e+04 0.000000000000e+00 
4.266666667000e+01 9.806700000000e+04 0.000000000000e+00 
4.300000000000e+01 9.806700000000e+04 0.000000000000e+00 
4.333333333000e+01 9.806700000000e+04 0.000000000000e+00 
4.366666667000e+01 9.806700000000e+04 0.000000000000e+00 
4.400000000000e+01 9.806700000000e+04 0.000000000000e+00 
4.433333333000e+01 9.806700000000e+04 0.000000000000e+00 
4.466666667000e+01 9.806700000000e+04 0.000000000000e+00 
4.500000000000e+01 9.806700000000e+04 0.000000000000e+00 
4.533333333000e+01 9.806700000000e+04 0.000000000000e+00 
4.566666667000e+01 9.806700000000e+04 0.000000000000e+00 
4.600000000000e+01 9.806700000000e+04 0.000000000000e+00 
4.633333333000e+01 9.806700000000e+04 0.000000000000e+00 
4.666666667000e+01 9.806700000000e+04 0.000000000000e+00 
4.700000000000e+01 9.806700000000e+04 0.000000000000e+00 
4.733333333000e+01 9.806700000000e+04 0.000000000000e+00 
4.766666667000e+01 9.806700000000e+04 0.000000000000e+00 
4.800000000000e+01 9.806700000000e+04 0.000000000000e+00 
4.833333333000e+01 9.806700000000e+04 0.000000000000e+00 
4.866666667000e+01 9.806700000000e+04 0.000000000000e+00 
4.900000000000e+01 9.806700000000e+04 0.000000000000e+00 
4.933333333000e+01 9.806700000000e+04 0.000000000000e+00 
4.966666667000e+01 9.806700000000e+04 0.000000000000e+00 
5.000000000000e+01 9.806700000000e+04 0.000000000000e+00 
 TITLE = "Profiles along polylines"
 VARIABLES = "DIST" "PRESSURE1" "Tracer" 
 ZONE T="TIME=2.160000000000e+04"
0.000000000000e+00 9.810000000000e+04 1.000000000000e+00 
3.333333330000e-01 9.806915094463e+04 3.814225474430e-01 
6.666666670000e-01 9.803830188916e+04 1.026739208523e-01 
1.000000000000e+00 9.800745283378e+04 2.763846589213e-02 
1.333333333000e+00 9.797660377841e+04 7.439910644871e-03 
1.666666667000e+00 9.794575472294e+04 2.002725853051e-03 
2.000000000000e+00 9.791490566757e+04 5.391073967059e-04 
2.333333333000e+00 9.788405661219e+04 1.451206038398e-04 
2.666666667000e+00 9.785320755672e+04 3.906455319036e-05 
3.000000000000e+00 9.782235850135e+04 1.051566271140e-05 
3.333333333000e+00 9.779150944597e+04 2.830677768398e-06 
3.666666667000e+00 9.776066039051e+04 7.619811381312e-07 
4.000000000000e+00 9.772981133513e+04 2.051153322927e-07 
4.333333333000e+00 9.769896227976e+04 5.521504990448e-08 
4.666666667000e+00 9.766811322429e+04 1.487216013100e-08 
5.000000000000e+00 9.763726416892e+04 4.117938000184e-09 
5.333333333000e+00 9.758790566752e+04 1.215786325785e-09 
5.666666667000e+00 9.753854716597e+04 3.589504573322e-10 
6.000000000000e+00 9.748918866457e+04 1.059759440331e-10 
6.333333333000e+00 9.743983016318e+04 3.128791562521e-11 
6.666666667000e+00 9.739047166163e+04 9.235234424125e-12 
7.000000000000e+00 9.734111316023e+04 2.725769130226e-12 
7.333333333000e+00 9.729175465883e+04 8.017713652208e-13 
7.666666667000e+00 9.724239615729e+04 2.359028105870e-13 
8.000000000000e+00 9.719303765589e+04 6.701661977714e-14 
8.333333333000e+00 9.714367915449e+04 1.932294086376e-14 
8.666666667000e+00 9.709432065295e+04 4.307313394955e-15 
9.000000000000e+00 9.704496215155e+04 1.151466934971e-15 
9.333333333000e+00 9.699560365016e+04 0.000000000000e+00 
9.666666667000e+00 9.694624514861e+04 0.000000000000e+00 
1.000000000000e+01 9.689688664721e+04 0.000000000000e+00 
1.033333333000e+01 9.686603759212e+04 0.000000000000e+00 
1.066666667000e+01 9.683518853610e+04 0.000000000000e+00 
1.100000000000e+01 9.680433948100e+04 0.000000000000e+00 
1.133333333000e+01 9.677349042591e+04 0.000000000000e+00 
1.166666667000e+01 9.674264136989e+04 0.000000000000e+00 
1.200000000000e+01 9.671179231480e+04 0.000000000000e+00 
1.233333333000e+01 9.668094325970e+04 0.000000000000e+00 
1.266666667000e+01 9.665009420368e+04 0.000000000000e+00 
1.300000000000e+01 9.661924514859e+04 0.000000000000e+00 
1.333333333000e+01 9.658839609350e+04 0.000000000000e+00 
1.366666667000e+01 9.655754703748e+04 0.000000000000e+00 
1.400000000000e+01 9.652669798239e+04 0.000000000000e+00 
1.433333333000e+01 9.649584892729e+04 0.000000000000e+00 
1.466666667000e+01 9.646499987128e+04 0.000000000000e+00 
1.500000000000e+01 9.643415081618e+04 0.000000000000e+00 
1.533333333000e+01 9.640330176109e+04 0.000000000000e+00 
1.566666667000e+01 9.637245270507e+04 0.000000000000e+00 
1.600000000000e+01 9.634160364998e+04 0.000000000000e+00 
1.633333333000e+01 9.631075459489e+04 0.000000000000e+00 
1.666666667000e+01 9.627990553888e+04 0.000000000000e+00 
1.700000000000e+01 9.624905648379e+04 0.000000000000e+00 
1.733333333000e+01 9.621820742869e+04 0.000000000000e+00 
1.766666667000e+01 9.618735837268e+04 0.000000000000e+00 
1.800000000000e+01 9.615650931759e+04 0.000000000000e+00 
1.833333333000e+01 9.612566026250e+04 0.000000000000e+00 
1.866666667000e+01 9.609481120648e+04 0.000000000000e+00 
1.900000000000e+01 9.606396215140e+04 0.000000000000e+00 
1.933333333000e+01 9.603311309631e+04 0.000000000000e+00 
1.966666667000e+01 9.600226404029e+04 0.000000000000e+00 
2.000000000000e+01 9.597141498520e+04 0.000000000000e+00 
2.033333333000e+01 9.594056593011e+04 0.000000000000e+00 
2.066666667000e+01 9.590971687410e+04 0.000000000000e+00 
2.100000000000e+01 9.587886781901e+04 0.000000000000e+00 
2.133333333000e+01 9.584801876393e+04 0.000000000000e+00 
2.166666667000e+01 9.581716970791e+04 0.000000000000e+00 
2.200000000000e+01 9.578632065282e+04 0.000000000000e+00 
2.233333333000e+01 9.575547159774e+04 0.000000000000e+00 
2.266666667000e+01 9.572462254173e+04 0.000000000000e+00 
2.300000000000e+01 9.569377348664e+04 0.000000000000e+00 
2.333333333000e+01 9.566292443155e+04 0.000000000000e+00 
2.366666667000e+01 9.563207537554e+04 0.000000000000e+00 
2.400000000000e+01 9.560122632045e+04 0.000000000000e+00 
2.433333333000e+01 9.557037726537e+04 0.000000000000e+00 
2.466666667000e+01 9.553952820936e+04 0.000000000000e+00 
2.500000000000e+01 9.550867915427e+04 0.000000000000e+00 
2.533333333000e+01 9.547783009919e+04 0.000000000000e+00 
2.566666667000e+01 9.544698104317e+04 0.000000000000e+00 
2.600000000000e+01 9.541613198809e+04 0.000000000000e+00 
2.633333333000e+01 9.538528293301e+04 0.000000000000e+00 
2.666666667000e+01 9.535443387699e+04 0.000000000000e+00 
2.700000000000e+01 9.532358482191e+04 0.000000000000e+00 
2.733333333000e+01 9.529273576683e+04 0.000000000000e+00 
2.766666667000e+01 9.526188671082e+04 0.000000000000e+00 
2.800000000000e+01 9.523103765573e+04 0.000000000000e+00 
2.833333333000e+01 9.520018860065e+04 0.000000000000e+00 
2.866666667000e+01 9.516933954464e+04 0.000000000000e+00 
2.900000000000e+01 9.513849048956e+04 0.000000000000e+00 
2.933333333000e+01 9.510764143447e+04 0.000000000000e+00 
2.966666667000e+01 9.507679237846e+04 0.000000000000e+00 
3.000000000000e+01 9.504594332338e+04 0.000000000000e+00 
3.033333333000e+01 9.501509426830e+04 0.000000000000e+00 
3.066666667000e+01 9.498424521229e+04 0.000000000000e+00 
3.100000000000e+01 9.495339615721e+04 0.000000000000e+00 
3.133333333000e+01 9.492254710212e+04 0.000000000000e+00 
3.166666667000e+01 9.489169804612e+04 0.000000000000e+00 
3.200000000000e+01 9.486084899103e+04 0.000000000000e+00 
3.233333333000e+01 9.482999993595e+04 0.000000000000e+00 
3.266666667000e+01 9.479915087994e+04 0.000000000000e+00 
3.300000000000e+01 9.476830182486e+04 0.000000000000e+00 
3.333333333000e+01 9.473745276978e+04 0.000000000000e+00 
3.366666667000e+01 9.470660371377e+04 0.000000000000e+00 
3.400000000000e+01 9.467575465869e+04 0.000000000000e+00 
3.433333333000e+01 9.464490560361e+04 0.000000000000e+00 
3.466666667000e+01 9.461405654760e+04 0.000000000000e+00 
3.500000000000e+01 9.458320749252e+04 0.000000000000e+00 
3.533333333000e+01 9.455235843744e+04 0.000000000000e+00 
3.566666667000e+01 9.452150938143e+04 0.000000000000e+00 
3.600000000000e+01 9.449066032635e+04 0.000000000000e+00 
3.633333333000e+01 9.445981127127e+04 0.000000000000e+00 
3.666666667000e+01 9.442896221526e+04 0.000000000000e+00 
3.700000000000e+01 9.439811316018e+04 0.000000000000e+00 
3.733333333000e+01 9.436726410510e+04 0.000000000000e+00 
3.766666667000e+01 9.433641504909e+04 0.000000000000e+00 
3.800000000000e+01 9.430556599401e+04 0.000000000000e+00 
3.833333333000e+01 9.427471693893e+04 0.000000000000e+00 
3.866666667000e+01 9.424386788292e+04 0.000000000000e+00 
3.900000000000e+01 9.421301882784e+04 0.000000000000e+00 
3.933333333000e+01 9.418216977276e+04 0.000000000000e+00 
3.966666667000e+01 9.415132071676e+04 0.000000000000e+00 
4.000000000000e+01 9.412047166167e+04 0.000000000000e+00 
4.033333333000e+01 9.408962260659e+04 0.000000000000e+00 
4.066666667000e+01 9.405877355059e+04 0.000000000000e+00 
4.100000000000e+01 9.402792449551e+04 0.000000000000e+00 
4.133333333000e+01 9.399707544043e+04 0.000000000000e+00 
4.166666667000e+01 9.396622638442e+04 0.000000000000e+00 
4.200000000000e+01 9.393537732934e+04 0.000000000000e+00 
4.233333333000e+01 9.390452827426e+04 0.000000000000e+00 
4.266666667000e+01 9.387367921825e+04 0.000000000000e+00 
4.300000000000e+01 9.384283016317e+04 0.000000000000e+00 
4.333333333000e+01 9.381198110809e+04 0.000000000000e+00 
4.366666667000e+01 9.378113205208e+04 0.000000000000e+00 
4.400000000000e+01 9.375028299700e+04 0.000000000000e+00 
4.433333333000e+01 9.371943394192e+04 0.000000000000e+00 
4.466666667000e+01 9.368858488592e+04 0.000000000000e+00 
4.500000000000e+01 9.365773583084e+04 0.000000000000e+00 
4.533333333000e+01 9.362688677576e+04 0.000000000000e+00 
4.566666667000e+01 9.359603771975e+04 0.000000000000e+00 
4.600000000000e+01 9.356518866467e+04 0.000000000000e+00 
4.633333333000e+01 9.353433960959e+04 0.000000000000e+00 
4.666666667000e+01 9.350349055358e+04 0.000000000000e+00 
4.700000000000e+01 9.347264149850e+04 0.000000000000e+00 
4.733333333000e+01 9.344179244342e+04 0.000000000000e+00 
4.766666667000e+01 9.341094338742e+04 0.000000000000e+00 
4.800000000000e+01 9.338009433233e+04 0.000000000000e+00 
4.833333333000e+01 9.334924527725e+04 0.000000000000e+00 
4.866666667000e+01 9.331839622125e+04 0.000000000000e+00 
4.900000000000e+01 9.328754716617e+04 0.000000000000e+00 
4.933333333000e+01 9.325669811109e+04 0.000000000000e+00 
4.966666667000e+01 9.322584905508e+04 0.000000000000e+00 
5.000000000000e+01 9.319500000000e+04 0.000000000000e+00 
 TITLE = "Profiles along polylines"
 VARIABLES = "DIST" "PRESSURE1" "Tracer" 
 ZONE T="TIME=4.320000000000e+04"
0.000000000000e+00 9.810000000000e+04 1.000000000000e+00 
3.333333330000e-01 9.806915094463e+04 5.715655049599e-01 
6.666666670000e-01 9.803830188916e+04 2.478511138797e-01 
1.000000000000e+00 9.800745283378e+04 9.201998674720e-02 
1.333333333000e+00 9.797660377841e+04 3.158146062647e-02 
1.666666667000e+00 9.794575472294e+04 1.033471550698e-02 
2.000000000000e+00 9.791490566757e+04 3.275496999921e-03 
2.333333333000e+00 9.788405661219e+04 1.014571795943e-03 
2.666666667000e+00 9.785320755672e+04 3.088711385913e-04 
3.000000000000e+00 9.782235850135e+04 9.277064030114e-05 
3.333333333000e+00 9.779150944597e+04 2.756398762073e-05 
3.666666667000e+00 9.776066039051e+04 8.117420553031e-06 
4.000000000000e+00 9.772981133513e+04 2.372877228318e-06 
4.333333333000e+00 9.769896227976e+04 6.893061211826e-07 
4.666666667000e+00 9.766811322429e+04 1.993027869687e-07 
5.000000000000e+00 9.763726416892e+04 5.892890416221e-08 
5.333333333000e+00 9.758790566752e+04 1.842017797096e-08 
5.666666667000e+00 9.753854716597e+04 5.740115784878e-09 
6.000000000000e+00 9.748918866457e+04 1.783795674457e-09 
6.333333333000e+00 9.743983016318e+04 5.529518522684e-10 
6.666666667000e+00 9.739047166163e+04 1.710131503236e-10 
7.000000000000e+00 9.734111316023e+04 5.278368531436e-11 
7.333333333000e+00 9.729175465883e+04 1.625275575363e-11 
7.666666667000e+00 9.724239615729e+04 4.996946393656e-12 
8.000000000000e+00 9.719303765589e+04 1.526770985305e-12 
8.333333333000e+00 9.714367915449e+04 4.648670849645e-13 
8.666666667000e+00 9.709432065295e+04 1.382504506111e-13 
9.000000000000e+00 9.704496215155e+04 4.010066053869e-14 
9.333333333000e+00 9.699560365016e+04 1.146676940643e-14 
9.666666667000e+00 9.694624514861e+04 3.237073202149e-15 
1.000000000000e+01 9.689688664721e+04 8.871702881096e-16 
1.033333333000e+01 9.686603759212e+04 2.276936095510e-16 
1.066666667000e+01 9.683518853610e+04 5.829850619402e-17 
1.100000000000e+01 9.680433948100e+04 1.488735747643e-17 
1.133333333000e+01 9.677349042591e+04 3.790560656240e-18 
1.166666667000e+01 9.674264136989e+04 9.619859311198e-19 
1.200000000000e+01 9.671179231480e+04 2.432375683891e-19 
1.233333333000e+01 9.668094325970e+04 6.125359119094e-20 
1.266666667000e+01 9.665009420368e+04 1.535183272980e-20 
1.300000000000e+01 9.661924514859e+04 3.831489950251e-21 
1.333333333000e+01 9.658839609350e+04 9.504297047168e-22 
1.366666667000e+01 9.655754703748e+04 2.357181555459e-22 
1.400000000000e+01 9.652669798239e+04 5.803535183806e-23 
1.433333333000e+01 9.649584892729e+04 1.416376717411e-23 
1.466666667000e+01 9.646499987128e+04 3.420412795806e-24 
1.500000000000e+01 9.643415081618e+04 8.148620700564e-25 
1.533333333000e+01 9.640330176109e+04 1.910489804101e-25 
1.566666667000e+01 9.637245270507e+04 4.367294185617e-26 
1.600000000000e+01 9.634160364998e+04 9.759643417593e-27 
1.633333333000e+01 9.631075459489e+04 2.036955859701e-27 
1.666666667000e+01 9.627990553888e+04 4.211940828992e-28 
1.700000000000e+01 9.624905648379e+04 6.542468028900e-29 
1.733333333000e+01 9.621820742869e+04 1.214332492380e-29 
1.766666667000e+01 9.618735837268e+04 0.000000000000e+00 
1.800000000000e+01 9.615650931759e+04 0.000000000000e+00 
1.833333333000e+01 9.612566026250e+04 0.000000000000e+00 
1.866666667000e+01 9.609481120648e+04 0.000000000000e+00 
1.900000000000e+01 9.606396215140e+04 0.000000000000e+00 
1.933333333000e+01 9.603311309631e+04 0.000000000000e+00 
1.966666667000e+01 9.600226404029e+04 0.000000000000e+00 
2.000000000000e+01 9.597141498520e+04 0.000000000000e+00 
2.033333333000e+01 9.594056593011e+04 0.000000000000e+00 
2.066666667000e+01 9.590971687410e+04 0.000000000000e+00 
2.100000000000e+01 9.587886781901e+04 0.000000000000e+00 
2.133333333000e+01 9.584801876393e+04 0.000000000000e+00 
2.166666667000e+01 9.581716970791e+04 0.000000000000e+00 
2.200000000000e+01 9.578632065282e+04 0.000000000000e+00 
2.233333333000e+01 9.575547159774e+04 0.000000000000e+00 
2.266666667000e+01 9.572462254173e+04 0.000000000000e+00 
2.300000000000e+01 9.569377348664e+04 0.000000000000e+00 
2.333333333000e+01 9.566292443155e+04 0.000000000000e+00 
2.366666667000e+01 9.563207537554e+04 0.000000000000e+00 
2.400000000000e+01 9.560122632045e+04 0.000000000000e+00 
2.433333333000e+01 9.557037726537e+04 0.000000000000e+00 
2.466666667000e+01 9.553952820936e+04 0.000000000000e+00 
2.500000000000e+01 9.550867915427e+04 0.000000000000e+00 
2.533333333000e+01 9.547783009919e+04 0.000000000000e+00 
2.566666667000e+01 9.544698104317e+04 0.000000000000e+00 
2.600000000000e+01 9.541613198809e+04 0.000000000000e+00 
2.633333333000e+01 9.538528293301e+04 0.000000000000e+00 
2.666666667000e+01 9.535443387699e+04 0.000000000000e+00 
2.700000000000e+01 9.532358482191e+04 0.000000000000e+00 
2.733333333000e+01 9.529273576683e+04 0.000000000000e+00 
2.766666667000e+01 9.526188671082e+04 0.000000000000e+00 
2.800000000000e+01 9.523103765573e+04 0.000000000000e+00 
2.833333333000e+01 9.520018860065e+04 0.000000000000e+00 
2.866666667000e+01 9.516933954464e+04 0.000000000000e+00 
2.900000000000e+01 9.513849048956e+04 0.000000000000e+00 
2.933333333000e+01 9.510764143447e+04 0.000000000000e+00 
2.966666667000e+01 9.507679237846e+04 0.000000000000e+00 
3.000000000000e+01 9.504594332338e+04 0.000000000000e+00 
3.033333333000e+01 9.501509426830e+04 0.000000000000e+00 
3.066666667000e+01 9.498424521229e+04 0.000000000000e+00 
3.100000000000e+01 9.495339615721e+04 0.000000000000e+00 
3.133333333000e+01 9.492254710212e+04 0.000000000000e+00 
3.166666667000e+01 9.489169804612e+04 0.000000000000e+00 
3.200000000000e+01 9.486084899103e+04 0.000000000000e+00 
3.233333333000e+01 9.482999993595e+04 0.000000000000e+00 
3.266666667000e+01 9.479915087994e+04 0.000000000000e+00 
3.300000000000e+01 9.476830182486e+04 0.000000000000e+00 
3.333333333000e+01 9.473745276978e+04 0.000000000000e+00 
3.366666667000e+01 9.470660371377e+04 0.000000000000e+00 
3.400000000000e+01 9.467575465869e+04 0.000000000000e+00 
3.433333333000e+01 9.464490560361e+04 0.000000000000e+00 
3.466666667000e+01 9.461405654760e+04 0.000000000000e+00 
3.500000000000e+01 9.458320749252e+04 0.000000000000e+00 
3.533333333000e+01 9.455235843744e+04 0.000000000000e+00 
3.566666667000e+01 9.452150938143e+04 0.000000000000e+00 
3.600000000000e+01 9.449066032635e+04 0.000000000000e+00 
3.633333333000e+01 9.445981127127e+04 0.000000000000e+00 
3.666666667000e+01 9.442896221526e+04 0.000000000000e+00 
3.700000000000e+01 9.439811316018e+04 0.000000000000e+00 
3.733333333000e+01 9.436726410510e+04 0.000000000000e+00 
3.766666667000e+01 9.433641504909e+04 0.000000000000e+00 
3.800000000000e+01 9.430556599401e+04 0.000000000000e+00 
3.833333333000e+01 9.427471693893e+04 0.000000000000e+00 
3.866666667000e+01 9.424386788292e+04 0.000000000000e+00 
3.900000000000e+01 9.421301882784e+04 0.000000000000e+00 
3.933333333000e+01 9.418216977276e+04 0.000000000000e+00 
3.966666667000e+01 9.415132071676e+04 0.000000000000e+00 
4.000000000000e+01 9.412047166167e+04 0.000000000000e+00 
4.033333333000e+01 9.408962260659e+04 0.000000000000e+00 
4.066666667000e+01 9.405877355059e+04 0.000000000000e+00 
4.100000000000e+01 9.402792449551e+04 0.000000000000e+00 
4.133333333000e+01 9.399707544043e+04 0.000000000000e+00 
4.166666667000e+01 9.396622638442e+04 0.000000000000e+00 
4.200000000000e+01 9.393537732934e+04 0.000000000000e+00 
4.233333333000e+01 9.390452827426e+04 0.000000000000e+00 
4.266666667000e+01 9.387367921825e+04 0.000000000000e+00 
4.300000000000e+01 9.384283016317e+04 0.000000000000e+00 
4.333333333000e+01 9.381198110809e+04 0.000000000000e+00 
4.366666667000e+01 9.378113205208e+04 0.000000000000e+00 
4.400000000000e+01 9.375028299700e+04 0.000000000000e+00 
4.433333333000e+01 9.371943394192e+04 0.000000000000e+00 
4.466666667000e+01 9.368858488592e+04 0.000000000000e+00 
4.500000000000e+01 9.365773583084e+04 0.000000000000e+00 
4.533333333000e+01 9.362688677576e+04 0.000000000000e+00 
4.566666667000e+01 9.359603771975e+04 0.000000000000e+00 
4.600000000000e+01 9.356518866467e+04 0.000000000000e+00 
4.633333333000e+01 9.353433960959e+04 0.000000000000e+00 
4.666666667000e+01 9.350349055358e+04 0.000000000000e+00 
4.700000000000e+01 9.347264149850e+04 0.000000000000e+00 
4.733333333000e+01 9.344179244342e+04 0.000000000000e+00 
4.766666667000e+01 9.341094338742e+04 0.000000000000e+00 
4.800000000000e+01 9.338009433233e+04 0.000000000000e+00 
4.833333333000e+01 9.334924527725e+04 0.000000000000e+00 
4.866666667000e+01 9.331839622125e+04 0.000000000000e+00 
4.900000000000e+01 9.328754716617e+04 0.000000000000e+00 
4.933333333000e+01 9.325669811109e+04 0.000000000000e+00 
4.966666667000e+01 9.322584905508e+04 0.000000000000e+00 
5.000000000000e+01 9.319500000000e+04 0.000000000000e+00 
 TITLE = "Profiles along polylines"
 VARIABLES = "DIST" "PRESSURE1" "Tracer" 
 ZONE T="TIME=6.480000000000e+04"
0.000000000000e+00 9.810000000000e+04 1.000000000000e+00 
3.333333330000e-01 9.806915094463e+04 6.808905726681e-01 
6.666666670000e-01 9.803830188916e+04 3.749062403601e-01 
1.000000000000e+00 9.800745283378e+04 1.756638188806e-01 
1.333333333000e+00 9.797660377841e+04 7.364154116150e-02 
1.666666667000e+00 9.794575472294e+04 2.859618793948e-02 
2.000000000000e+00 9.791490566757e+04 1.051105581973e-02 
2.333333333000e+00 9.788405661219e+04 3.708370532440e-03 
2.666666667000e+00 9.785320755672e+04 1.267579856532e-03 
3.000000000000e+00 9.782235850135e+04 4.225300333425e-04 
3.333333333000e+00 9.779150944597e+04 1.380005026738e-04 
3.666666667000e+00 9.776066039051e+04 4.431723739277e-05 
4.000000000000e+00 9.772981133513e+04 1.403141150374e-05 
4.333333333000e+00 9.769896227976e+04 4.389230336557e-06 
4.666666667000e+00 9.766811322429e+04 1.359897718357e-06 
5.000000000000e+00 9.763726416892e+04 4.287153559943e-07 
5.333333333000e+00 9.758790566752e+04 1.417364165310e-07 
5.666666667000e+00 9.753854716597e+04 4.657648324299e-08 
6.000000000000e+00 9.748918866457e+04 1.522267945561e-08 
6.333333333000e+00 9.743983016318e+04 4.950881041240e-09 
6.666666667000e+00 9.739047166163e+04 1.603012361735e-09 
7.000000000000e+00 9.734111316023e+04 5.169203678157e-10 
7.333333333000e+00 9.729175465883e+04 1.660652244481e-10 
7.666666667000e+00 9.724239615729e+04 5.316446856744e-11 
8.000000000000e+00 9.719303765589e+04 1.696621704207e-11 
8.333333333000e+00 9.714367915449e+04 5.391949705963e-12 
8.666666667000e+00 9.709432065295e+04 1.702907384102e-12 
9.000000000000e+00 9.704496215155e+04 5.337165857185e-13 
9.333333333000e+00 9.699560365016e+04 1.659882086177e-13 
9.666666667000e+00 9.694624514861e+04 5.120193996460e-14 
1.000000000000e+01 9.689688664721e+04 1.526430303244e-14 
1.033333333000e+01 9.686603759212e+04 4.261029953811e-15 
1.066666667000e+01 9.683518853610e+04 1.182470193804e-15 
1.100000000000e+01 9.680433948100e+04 3.263745953995e-16 
1.133333333000e+01 9.677349042591e+04 8.963073281045e-17 
1.166666667000e+01 9.674264136989e+04 2.449832864460e-17 
1.200000000000e+01 9.671179231480e+04 6.665737170936e-18 
1.233333333000e+01 9.668094325970e+04 1.805765969140e-18 
1.266666667000e+01 9.665009420368e+04 4.870988008710e-19 
1.300000000000e+01 9.661924514859e+04 1.308168738979e-19 
1.333333333000e+01 9.658839609350e+04 3.509430925666e-20 
1.366666667000e+01 9.655754703748e+04 9.378852153690e-21 
1.400000000000e+01 9.652669798239e+04 2.496886672714e-21 
1.433333333000e+01 9.649584892729e+04 6.621084716748e-22 
1.466666667000e+01 9.646499987128e+04 1.748478524177e-22 
1.500000000000e+01 9.643415081618e+04 4.597234802136e-23 
1.533333333000e+01 9.640330176109e+04 1.203042145994e-23 
1.566666667000e+01 9.637245270507e+04 3.132632291591e-24 
1.600000000000e+01 9.634160364998e+04 8.109612610362e-25 
1.633333333000e+01 9.631075459489e+04 2.087484258306e-25 
1.666666667000e+01 9.627990553888e+04 5.332207319986e-26 
1.700000000000e+01 9.624905648379e+04 1.351297656682e-26 
1.733333333000e+01 9.621820742869e+04 3.403507847603e-27 
1.766666667000e+01 9.618735837268e+04 8.528271657901e-28 
1.800000000000e+01 9.615650931759e+04 2.129228403917e-28 
1.833333333000e+01 9.612566026250e+04 5.254396479537e-29 