 TITLE = "Profiles along polylines"
 VARIABLES = "DIST" "PRESSURE1" "Tracer" 
 ZONE T="TIME=0.000000000000e+00"
0.000000000000e+00 9.806700000000e+04 1.000000000000e+00 
3.333333330000e-01 9.806700000000e+04 0.000000000000e+00 
6.666666670000e-01 9.806700000000e+04 0.000000000000e+00 
1.000000000000e+00 9.806700000000e+04 0.000000000000e+00 
1.333333333000e+00 9.806700000000e+04 0.000000000000e+00 
1.666666667000e+00 9.806700000000e+04 0.000000000000e+00 
2.000000000000e+00 9.806700000000e+04 0.000000000000e+00 
2.333333333000e+00 9.806700000000e+04 0.000000000000e+00 
2.666666667000e+00 9.806700000000e+04 0.000000000000e+00 
3.000000000000e+00 9.806700000000e+04 0.000000000000e+00 
3.333333333000e+00 9.806700000000e+04 0.000000000000e+00 
3.666666667000e+00 9.806700000000e+04 0.000000000000e+00 
4.000000000000e+00 9.806700000000e+04 0.000000000000e+00 
4.333333333000e+00 9.806700000000e+04 0.000000000000e+00 
4.666666667000e+00 9.806700000000e+04 0.000000000000e+00 
5.000000000000e+00 9.806700000000e+04 0.000000000000e+00 
5.333333333000e+00 9.806700000000e+04 0.000000000000e+00 
5.666666667000e+00 9.806700000000e+04 0.000000000000e+00 
6.000000000000e+00 9.806700000000e+04 0.000000000000e+00 
6.333333333000e+00 9.806700000000e+04 0.000000000000e+00 
6.666666667000e+00 9.806700000000e+04 0.000000000000e+00 
7.000000000000e+00 9.806700000000e+04 0.000000000000e+00 
7.333333333000e+00 9.806700000000e+04 0.000000000000e+00 
7.666666667000e+00 9.806700000000e+04 0.000000000000e+00 
8.000000000000e+00 9.806700000000e+04 0.000000000000e+00 
8.333333333000e+00 9.806700000000e+04 0.000000000000e+00 
8.666666667000e+00 9.806700000000e+04 0.000000000000e+00 
9.000000000000e+00 9.806700000000e+04 0.000000000000e+00 
9.333333333000e+00 9.806700000000e+04 0.000000000000e+00 
9.666666667000e+00 9.806700000000e+04 0.000000000000e+00 
1.000000000000e+01 9.806700000000e+04 0.000000000000e+00 
1.033333333000e+01 9.806700000000e+04 0.000000000000e+00 
1.066666667000e+01 9.806700000000e+04 0.000000000000e+00 
1.100000000000e+01 9.806700000000e+04 0.000000000000e+00 
1.133333333000e+01 9.806700000000e+04 0.000000000000e+00 
1.166666667000e+01 9.806700000000e+04 0.000000000000e+00 
1.200000000000e+01 9.806700000000e+04 0.000000000000e+00 
1.233333333000e+01 9.806700000000e+04 0.000000000000e+00 
1.266666667000e+01 9.806700000000e+04 0.000000000000e+00 
1.300000000000e+01 9.806700000000e+04 0.000000000000e+00 
1.333333333000e+01 9.806700000000e+04 0.000000000000e+00 
1.366666667000e+01 9.806700000000e+04 0.000000000000e+00 
1.400000000000e+01 9.806700000000e+04 0.000000000000e+00 
1.433333333000e+01 9.806700000000e+04 0.000000000000e+00 
1.466666667000e+01 9.806700000000e+04 0.000000000000e+00 
1.500000000000e+01 9.806700000000e+04 0.000000000000e+00 
1.533333333000e+01 9.806700000000e+04 0.000000000000e+00 
1.566666667000e+01 9.806700000000e+04 0.000000000000e+00 
1.600000000000e+01 9.806700000000e+04 0.000000000000e+00 
1.633333333000e+01 9.806700000000e+04 0.000000000000e+00 
1.666666667000e+01 9.806700000000e+04 0.000000000000e+00 
1.700000000000e+01 9.806700000000e+04 0.000000000000e+00 
1.733333333000e+01 9.806700000000e+04 0.000000000000e+00 
1.766666667000e+01 9.806700000000e+04 0.000000000000e+00 
1.800000000000e+01 9.806700000000e+04 0.000000000000e+00 
1.833333333000e+01 9.806700000000e+04 0.000000000000e+00 
1.866666667000e+01 9.806700000000e+04 0.000000000000e+00 
1.900000000000e+01 9.806700000000e+04 0.000000000000e+00 
1.933333333000e+01 9.806700000000e+04 0.000000000000e+00 
1.966666667000e+01 9.806700000000e+04 0.000000000000e+00 
2.000000000000e+01 9.806700000000e+04 0.000000000000e+00 
2.033333333000e+01 9.806700000000e+04 0.000000000000e+00 
2.066666667000e+01 9.806700000000e+04 0.000000000000e+00 
2.100000000000e+01 9.806700000000e+04 0.000000000000e+00 
2.133333333000e+01 9.806700000000e+04 0.000000000000e+00 
2.166666667000e+01 9.806700000000e+04 0.000000000000e+00 
2.200000000000e+01 9.806700000000e+04 0.000000000000e+00 
2.233333333000e+01 9.806700000000e+04 0.000000000000e+00 
2.266666667000e+01 9.806700000000e+04 0.000000000000e+00 
2.300000000000e+01 9.806700000000e+04 0.000000000000e+00 
2.333333333000e+01 9.806700000000e+04 0.000000000000e+00 
2.366666667000e+01 9.806700000000e+04 0.000000000000e+00 
2.400000000000e+01 9.806700000000e+04 0.000000000000e+00 
2.433333333000e+01 9.806700000000e+04 0.000000000000e+00 
2.466666667000e+01 9.806700000000e+04 0.000000000000e+00 
2.500000000000e+01 9.806700000000e+04 0.000000000000e+00 
2.533333333000e+01 9.806700000000e+04 0.000000000000e+00 
2.566666667000e+01 9.806700000000e+04 0.000000000000e+00 
2.600000000000e+01 9.806700000000e+04 0.000000000000e+00 
2.633333333000e+01 9.806700000000e+04 0.000000000000e+00 
2.666666667000e+01 9.806700000000e+04 0.000000000000e+00 
2.700000000000e+01 9.806700000000e+04 0.000000000000e+00 
2.733333333000e+01 9.806700000000e+04 0.000000000000e+00 
2.766666667000e+01 9.806700000000e+04 0.000000000000e+00 
2.800000000000e+01 9.806700000000e+04 0.000000000000e+00 
2.833333333000e+01 9.806700000000e+04 0.000000000000e+00 
2.866666667000e+01 9.806700000000e+04 0.000000000000e+00 
2.900000000000e+01 9.806700000000e+04 0.000000000000e+00 
2.933333333000e+01 9.806700000000e+04 0.000000000000e+00 
2.966666667000e+01 9.806700000000e+04 0.000000000000e+00 
3.000000000000e+01 9.806700000000e+04 0.000000000000e+00 
3.033333333000e+01 9.806700000000e+04 0.000000000000e+00 
3.066666667000e+01 9.806700000000e+04 0.000000000000e+00 
3.100000000000e+01 9.806700000000e+04 0.000000000000e+00 
3.133333333000e+01 9.806700000000e+04 0.000000000000e+00 
3.166666667000e+01 9.806700000000e+04 0.000000000000e+00 
3.200000000000e+01 9.806700000000e+04 0.000000000000e+00 
3.233333333000e+01 9.806700000000e+04 0.000000000000e+00 
3.266666667000e+01 9.806700000000e+04 0.000000000000e+00 
3.300000000000e+01 9.806700000000e+04 0.000000000000e+00 
3.333333333000e+01 9.806700000000e+04 0.000000000000e+00 
3.366666667000e+01 9.806700000000e+04 0.000000000000e+00 
3.400000000000e+01 9.806700000000e+04 0.000000000000e+00 
3.433333333000e+01 9.806700000000e+04 0.000000000000e+00 
3.466666667000e+01 9.806700000000e+04 0.000000000000e+00 
3.500000000000e+01 9.806700000000e+04 0.000000000000e+00 
3.533333333000e+01 9.806700000000e+04 0.000000000000e+00 
3.566666667000e+01 9.806700000000e+04 0.000000000000e+00 
3.600000000000e+01 9.806700000000e+04 0.000000000000e+00 
3.633333333000e+01 9.806700000000e+04 0.000000000000e+00 
3.666666667000e+01 9.806700000000e+04 0.000000000000e+00 
3.700000000000e+01 9.806700000000e+04 0.000000000000e+00 
3.733333333000e+01 9.806700000000e+04 0.000000000000e+00 
3.766666667000e+01 9.806700000000e+04 0.000000000000e+00 
3.800000000000e+01 9.806700000000e+04 0.000000000000e+00 
3.833333333000e+01 9.806700000000e+04 0.000000000000e+00 
3.866666667000e+01 9.806700000000e+04 0.000000000000e+00 
3.900000000000e+01 9.806700000000e+04 0.000000000000e+00 
3.933333333000e+01 9.806700000000e+04 0.000000000000e+00 
3.966666667000e+01 9.806700000000e+04 0.000000000000e+00 
4.000000000000e+01 9.806700000000e+04 0.000000000000e+00 
4.033333333000e+01 9.806700000000e+04 0.000000000000e+00 
4.066666667000e+01 9.806700000000e+04 0.000000000000e+00 
4.100000000000e+01 9.806700000000e+04 0.000000000000e+00 
4.133333333000e+01 9.806700000000e+04 0.000000000000e+00 
4.166666667000e+01 9.806700000000e+04 0.000000000000e+00 
4.200000000000e+01 9.806700000000e+04 0.000000000000e+00 
4.233333333000e+01 9.806700000000e+04 0.000000000000e+00 
4.266666667000e+01 9.806700000000e+04 0.000000000000e+00 
4.300000000000e+01 9.806700000000e+04 0.000000000000e+00 
4.333333333000e+01 9.806700000000e+04 0.000000000000e+00 
4.366666667000e+01 9.806700000000e+04 0.000000000000e+00 
4.400000000000e+01 9.806700000000e+04 0.000000000000e+00 
4.433333333000e+01 9.806700000000e+04 0.000000000000e+00 
4.466666667000e+01 9.806700000000e+04 0.000000000000e+00 
4.500000000000e+01 9.806700000000e+04 0.000000000000e+00 
4.533333333000e+01 9.806700000000e+04 0.000000000000e+00 
4.566666667000e+01 9.806700000000e+04 0.000000000000e+00 
4.600000000000e+01 9.806700000000e+04 0.000000000000e+00 
4.633333333000e+01 9.806700000000e+04 0.000000000000e+00 
4.666666667000e+01 9.806700000000e+04 0.000000000000e+00 
4.700000000000e+01 9.806700000000e+04 0.000000000000e+00 
4.733333333000e+01 9.806700000000e+04 0.000000000000e+00 
4.766666667000e+01 9.806700000000e+04 0.000000000000e+00 
4.800000000000e+01 9.806700000000e+04 0.000000000000e+00 
4.833333333000e+01 9.806700000000e+04 0.000000000000e+00 
4.866666667000e+01 9.806700000000e+04 0.000000000000e+00 
4.900000000000e+01 9.806700000000e+04 0.000000000000e+00 
4.933333333000e+01 9.806700000000e+04 0.000000000000e+00 
4.966666667000e+01 9.806700000000e+04 0.000000000000e+00 
5.000000000000e+01 9.806700000000e+04 0.000000000000e+00 
 TITLE = "Profiles along polylines"
 VARIABLES = "DIST" "PRESSURE1" "Tracer" 
 ZONE T="TIME=2.160000000000e+04"
0.000000000000e+00 9.810000000000e+04 1.000000000000e+00 
3.333333330000e-01 9.806924953937e+04 3.808141660480e-01 
6.666666670000e-01 9.803849907864e+04 1.022098715697e-01 
1.000000000000e+00 9.800774861801e+04 2.743295502698e-02 
1.333333333000e+00 9.797699815738e+04 7.362958291498e-03 
1.666666667000e+00 9.794624769665e+04 1.976205426273e-03 
2.000000000000e+00 9.791549723602e+04 5.304101624496e-04 
2.333333333000e+00 9.788474677539e+04 1.423611820044e-04 
2.666666667000e+00 9.785399631467e+04 3.820949803488e-05 
3.000000000000e+00 9.782324585403e+04 1.025536403836e-05 
3.333333333000e+00 9.779249539340e+04 2.752522206005e-06 
3.666666667000e+00 9.776174493268e+04 7.387723551689e-07 
4.000000000000e+00 9.773099447204e+04 1.982864890340e-07 
4.333333333000e+00 9.770024401141e+04 5.323577188917e-08 
4.666666667000e+00 9.766949355069e+04 1.449358428511e-08 
5.000000000000e+00 9.763090480896e+04 4.132961317553e-09 
5.333333333000e+00 9.758170405919e+04 1.216939677011e-09 
5.666666667000e+00 9.753250330927e+04 3.583245506891e-10 
6.000000000000e+00 9.748330255950e+04 1.055065471526e-10 
6.333333333000e+00 9.743410180973e+04 3.106553750420e-11 
6.666666667000e+00 9.738490105981e+04 9.144883870409e-12 
7.000000000000e+00 9.733570031004e+04 2.691839232714e-12 
7.333333333000e+00 9.728649956026e+04 7.896340442339e-13 
7.666666667000e+00 9.723729881035e+04 2.317098307553e-13 
8.000000000000e+00 9.718809806057e+04 6.564003214939e-14 
8.333333333000e+00 9.713889731080e+04 1.887834950048e-14 
8.666666667000e+00 9.708969656088e+04 4.195918195033e-15 
9.000000000000e+00 9.704049581111e+04 1.119585917286e-15 
9.333333333000e+00 9.699129506134e+04 0.000000000000e+00 
9.666666667000e+00 9.694209431142e+04 0.000000000000e+00 
1.000000000000e+01 9.689289356164e+04 0.000000000000e+00 
1.033333333000e+01 9.685430482026e+04 0.000000000000e+00 
1.066666667000e+01 9.682355435898e+04 0.000000000000e+00 
1.100000000000e+01 9.679280389863e+04 0.000000000000e+00 
1.133333333000e+01 9.676205343827e+04 0.000000000000e+00 
1.166666667000e+01 9.673130297699e+04 0.000000000000e+00 
1.200000000000e+01 9.670055251663e+04 0.000000000000e+00 
1.233333333000e+01 9.666980205627e+04 0.000000000000e+00 
1.266666667000e+01 9.663905159499e+04 0.000000000000e+00 
1.300000000000e+01 9.660830113463e+04 0.000000000000e+00 
1.333333333000e+01 9.657755067428e+04 0.000000000000e+00 
1.366666667000e+01 9.654680021299e+04 0.000000000000e+00 
1.400000000000e+01 9.651604975264e+04 0.000000000000e+00 
1.433333333000e+01 9.648529929228e+04 0.000000000000e+00 
1.466666667000e+01 9.645454883100e+04 0.000000000000e+00 
1.500000000000e+01 9.642379837064e+04 0.000000000000e+00 
1.533333333000e+01 9.639304791028e+04 0.000000000000e+00 
1.566666667000e+01 9.636229744900e+04 0.000000000000e+00 
1.600000000000e+01 9.633154698864e+04 0.000000000000e+00 
1.633333333000e+01 9.630079652828e+04 0.000000000000e+00 
1.666666667000e+01 9.627004606699e+04 0.000000000000e+00 
1.700000000000e+01 9.623929560663e+04 0.000000000000e+00 
1.733333333000e+01 9.620854514627e+04 0.000000000000e+00 
1.766666667000e+01 9.617779468499e+04 0.000000000000e+00 
1.800000000000e+01 9.614704422463e+04 0.000000000000e+00 
1.833333333000e+01 9.611629376427e+04 0.000000000000e+00 
1.866666667000e+01 9.608554330298e+04 0.000000000000e+00 
1.900000000000e+01 9.605479284262e+04 0.000000000000e+00 
1.933333333000e+01 9.602404238226e+04 0.000000000000e+00 
1.966666667000e+01 9.599329192098e+04 0.000000000000e+00 
2.000000000000e+01 9.596254146062e+04 0.000000000000e+00 
2.033333333000e+01 9.593179100025e+04 0.000000000000e+00 
2.066666667000e+01 9.590104053897e+04 0.000000000000e+00 
2.100000000000e+01 9.587029007861e+04 0.000000000000e+00 
2.133333333000e+01 9.583953961825e+04 0.000000000000e+00 
2.166666667000e+01 9.580878915696e+04 0.000000000000e+00 
2.200000000000e+01 9.577803869660e+04 0.000000000000e+00 
2.233333333000e+01 9.574728823624e+04 0.000000000000e+00 
2.266666667000e+01 9.571653777495e+04 0.000000000000e+00 
2.300000000000e+01 9.568578731459e+04 0.000000000000e+00 
2.333333333000e+01 9.565503685422e+04 0.000000000000e+00 
2.366666667000e+01 9.562428639294e+04 0.000000000000e+00 
2.400000000000e+01 9.559353593257e+04 0.000000000000e+00 
2.433333333000e+01 9.556278547221e+04 0.000000000000e+00 
2.466666667000e+01 9.553203501092e+04 0.000000000000e+00 
2.500000000000e+01 9.550128455056e+04 0.000000000000e+00 
2.533333333000e+01 9.547053409020e+04 0.000000000000e+00 
2.566666667000e+01 9.543978362891e+04 0.000000000000e+00 
2.600000000000e+01 9.540903316855e+04 0.000000000000e+00 
2.633333333000e+01 9.537828270818e+04 0.000000000000e+00 
2.666666667000e+01 9.534753224689e+04 0.000000000000e+00 
2.700000000000e+01 9.531678178653e+04 0.000000000000e+00 
2.733333333000e+01 9.528603132616e+04 0.000000000000e+00 
2.766666667000e+01 9.525528086488e+04 0.000000000000e+00 
2.800000000000e+01 9.522453040451e+04 0.000000000000e+00 
2.833333333000e+01 9.519377994415e+04 0.000000000000e+00 
2.866666667000e+01 9.516302948286e+04 0.000000000000e+00 
2.900000000000e+01 9.513227902249e+04 0.000000000000e+00 
2.933333333000e+01 9.510152856213e+04 0.000000000000e+00 
2.966666667000e+01 9.507077810084e+04 0.000000000000e+00 
3.000000000000e+01 9.504002764047e+04 0.000000000000e+00 
3.033333333000e+01 9.500927718011e+04 0.000000000000e+00 
3.066666667000e+01 9.497852671882e+04 0.000000000000e+00 
3.100000000000e+01 9.494777625845e+04 0.000000000000e+00 
3.133333333000e+01 9.491702579809e+04 0.000000000000e+00 
3.166666667000e+01 9.488627533680e+04 0.000000000000e+00 
3.200000000000e+01 9.485552487643e+04 0.000000000000e+00 
3.233333333000e+01 9.482477441607e+04 0.000000000000e+00 
3.266666667000e+01 9.479402395478e+04 0.000000000000e+00 
3.300000000000e+01 9.476327349441e+04 0.000000000000e+00 
3.333333333000e+01 9.473252303405e+04 0.000000000000e+00 
3.366666667000e+01 9.470177257276e+04 0.000000000000e+00 
3.400000000000e+01 9.467102211239e+04 0.000000000000e+00 
3.433333333000e+01 9.464027165202e+04 0.000000000000e+00 
3.466666667000e+01 9.460952119073e+04 0.000000000000e+00 
3.500000000000e+01 9.457877073037e+04 0.000000000000e+00 
3.533333333000e+01 9.454802027000e+04 0.000000000000e+00 
3.566666667000e+01 9.451726980871e+04 0.000000000000e+00 
3.600000000000e+01 9.448651934834e+04 0.000000000000e+00 
3.633333333000e+01 9.445576888798e+04 0.000000000000e+00 
3.666666667000e+01 9.442501842669e+04 0.000000000000e+00 
3.700000000000e+01 9.439426796632e+04 0.000000000000e+00 
3.733333333000e+01 9.436351750595e+04 0.000000000000e+00 
3.766666667000e+01 9.433276704466e+04 0.000000000000e+00 
3.800000000000e+01 9.430201658430e+04 0.000000000000e+00 
3.833333333000e+01 9.427126612393e+04 0.000000000000e+00 
3.866666667000e+01 9.424051566264e+04 0.000000000000e+00 
3.900000000000e+01 9.420976520227e+04 0.000000000000e+00 
3.933333333000e+01 9.417901474191e+04 0.000000000000e+00 
3.966666667000e+01 9.414826428062e+04 0.000000000000e+00 
4.000000000000e+01 9.411751382025e+04 0.000000000000e+00 
4.033333333000e+01 9.408676335988e+04 0.000000000000e+00 
4.066666667000e+01 9.405601289859e+04 0.000000000000e+00 
4.100000000000e+01 9.402526243822e+04 0.000000000000e+00 
4.133333333000e+01 9.399451197786e+04 0.000000000000e+00 
4.166666667000e+01 9.396376151657e+04 0.000000000000e+00 
4.200000000000e+01 9.393301105620e+04 0.000000000000e+00 
4.233333333000e+01 9.390226059583e+04 0.000000000000e+00 
4.266666667000e+01 9.387151013454e+04 0.000000000000e+00 
4.300000000000e+01 9.384075967417e+04 0.000000000000e+00 
4.333333333000e+01 9.381000921381e+04 0.000000000000e+00 
4.366666667000e+01 9.377925875252e+04 0.000000000000e+00 
4.400000000000e+01 9.374850829215e+04 0.000000000000e+00 
4.433333333000e+01 9.371775783178e+04 0.000000000000e+00 
4.466666667000e+01 9.368700737049e+04 0.000000000000e+00 
4.500000000000e+01 9.365625691012e+04 0.000000000000e+00 
4.533333333000e+01 9.362550644976e+04 0.000000000000e+00 
4.566666667000e+01 9.359475598847e+04 0.000000000000e+00 
4.600000000000e+01 9.356400552810e+04 0.000000000000e+00 
4.633333333000e+01 9.353325506773e+04 0.000000000000e+00 
4.666666667000e+01 9.350250460644e+04 0.000000000000e+00 
4.700000000000e+01 9.347175414608e+04 0.000000000000e+00 
4.733333333000e+01 9.344100368571e+04 0.000000000000e+00 
4.766666667000e+01 9.341025322442e+04 0.000000000000e+00 
4.800000000000e+01 9.337950276405e+04 0.000000000000e+00 
4.833333333000e+01 9.334875230368e+04 0.000000000000e+00 
4.866666667000e+01 9.331800184239e+04 0.000000000000e+00 
4.900000000000e+01 9.328725138203e+04 0.000000000000e+00 
4.933333333000e+01 9.325650092166e+04 0.000000000000e+00 
4.966666667000e+01 9.322575046037e+04 0.000000000000e+00 
5.000000000000e+01 9.319500000000e+04 0.000000000000e+00 
 TITLE = "Profiles along polylines"
 VARIABLES = "DIST" "PRESSURE1" "Tracer" 
 ZONE T="TIME=4.320000000000e+04"
0.000000000000e+00 9.810000000000e+04 1.000000000000e+00 
3.333333330000e-01 9.806924953937e+04 5.708656180036e-01 
6.666666670000e-01 9.803849907864e+04 2.470383988782e-01 
1.000000000000e+00 9.800774861801e+04 9.148555516006e-02 
1.333333333000e+00 9.797699815738e+04 3.131306950329e-02 
1.666666667000e+00 9.794624769665e+04 1.021834494269e-02 
2.000000000000e+00 9.791549723602e+04 3.229452942736e-03 
2.333333333000e+00 9.788474677539e+04 9.974538218009e-04 
2.666666667000e+00 9.785399631467e+04 3.027876246730e-04 
3.000000000000e+00 9.782324585403e+04 9.068114045933e-05 
3.333333333000e+00 9.779249539340e+04 2.686521974062e-05 
3.666666667000e+00 9.776174493268e+04 7.888704344617e-06 
4.000000000000e+00 9.773099447204e+04 2.299343408867e-06 
4.333333333000e+00 9.770024401141e+04 6.662342456067e-07 
4.666666667000e+00 9.766949355069e+04 1.946553658865e-07 
5.000000000000e+00 9.763090480896e+04 5.913072481584e-08 
5.333333333000e+00 9.758170405919e+04 1.843635970086e-08 
5.666666667000e+00 9.753250330927e+04 5.730487189546e-09 
6.000000000000e+00 9.748330255950e+04 1.776231799614e-09 
6.333333333000e+00 9.743410180973e+04 5.491873449769e-10 
6.666666667000e+00 9.738490105981e+04 1.694094773232e-10 
7.000000000000e+00 9.733570031004e+04 5.215338577008e-11 
7.333333333000e+00 9.728649956026e+04 1.601735754641e-11 
7.666666667000e+00 9.723729881035e+04 4.912383568745e-12 
8.000000000000e+00 9.718809806057e+04 1.497383848439e-12 
8.333333333000e+00 9.713889731080e+04 4.550572905055e-13 
8.666666667000e+00 9.708969656088e+04 1.350493778682e-13 
9.000000000000e+00 9.704049581111e+04 3.906720763188e-14 
9.333333333000e+00 9.699129506134e+04 1.114156160170e-14 
9.666666667000e+00 9.694209431142e+04 3.137872260083e-15 
1.000000000000e+01 9.689289356164e+04 8.694357811038e-16 
1.033333333000e+01 9.685430482026e+04 2.297170312198e-16 
1.066666667000e+01 9.682355435898e+04 5.864306252303e-17 
1.100000000000e+01 9.679280389863e+04 1.493112228210e-17 
1.133333333000e+01 9.676205343827e+04 3.790483616430e-18 
1.166666667000e+01 9.673130297699e+04 9.591165611953e-19 
1.200000000000e+01 9.670055251663e+04 2.418071062755e-19 
1.233333333000e+01 9.666980205627e+04 6.071094913934e-20 
1.266666667000e+01 9.663905159499e+04 1.517933181607e-20 
1.300000000000e+01 9.660830113463e+04 3.776969649935e-21 
1.333333333000e+01 9.657755067428e+04 9.371544980647e-22 
1.366666667000e+01 9.654680021299e+04 2.318076321604e-22 
1.400000000000e+01 9.651604975264e+04 5.692365526015e-23 
1.433333333000e+01 9.648529929228e+04 1.385711730720e-23 
1.466666667000e+01 9.645454883100e+04 3.338148921392e-24 
1.500000000000e+01 9.642379837064e+04 7.934063251165e-25 
1.533333333000e+01 9.639304791028e+04 1.856197766691e-25 
1.566666667000e+01 9.636229744900e+04 4.234979850481e-26 
1.600000000000e+01 9.633154698864e+04 9.450988444208e-27 
1.633333333000e+01 9.630079652828e+04 1.970145861268e-27 
1.666666667000e+01 9.627004606699e+04 4.078034709710e-28 
1.700000000000e+01 9.623929560663e+04 6.329949621790e-29 
1.733333333000e+01 9.620854514627e+04 1.185060108479e-29 
1.766666667000e+01 9.617779468499e+04 0.000000000000e+00 
1.800000000000e+01 9.614704422463e+04 0.000000000000e+00 
1.833333333000e+01 9.611629376427e+04 0.000000000000e+00 
1.866666667000e+01 9.608554330298e+04 0.000000000000e+00 
1.900000000000e+01 9.605479284262e+04 0.000000000000e+00 
1.933333333000e+01 9.602404238226e+04 0.000000000000e+00 
1.966666667000e+01 9.599329192098e+04 0.000000000000e+00 
2.000000000000e+01 9.596254146062e+04 0.000000000000e+00 
2.033333333000e+01 9.593179100025e+04 0.000000000000e+00 
2.066666667000e+01 9.590104053897e+04 0.000000000000e+00 
2.100000000000e+01 9.587029007861e+04 0.000000000000e+00 
2.133333333000e+01 9.583953961825e+04 0.000000000000e+00 
2.166666667000e+01 9.580878915696e+04 0.000000000000e+00 
2.200000000000e+01 9.577803869660e+04 0.000000000000e+00 
2.233333333000e+01 9.574728823624e+04 0.000000000000e+00 
2.266666667000e+01 9.571653777495e+04 0.000000000000e+00 
2.300000000000e+01 9.568578731459e+04 0.000000000000e+00 
2.333333333000e+01 9.565503685422e+04 0.000000000000e+00 
2.366666667000e+01 9.562428639294e+04 0.000000000000e+00 
2.400000000000e+01 9.559353593257e+04 0.000000000000e+00 
2.433333333000e+01 9.556278547221e+04 0.000000000000e+00 
2.466666667000e+01 9.553203501092e+04 0.000000000000e+00 
2.500000000000e+01 9.550128455056e+04 0.000000000000e+00 
2.533333333000e+01 9.547053409020e+04 0.000000000000e+00 
2.566666667000e+01 9.543978362891e+04 0.000000000000e+00 
2.600000000000e+01 9.540903316855e+04 0.000000000000e+00 
2.633333333000e+01 9.537828270818e+04 0.000000000000e+00 
2.666666667000e+01 9.534753224689e+04 0.000000000000e+00 
2.700000000000e+01 9.531678178653e+04 0.000000000000e+00 
2.733333333000e+01 9.528603132616e+04 0.000000000000e+00 
2.766666667000e+01 9.525528086488e+04 0.000000000000e+00 
2.800000000000e+01 9.522453040451e+04 0.000000000000e+00 
2.833333333000e+01 9.519377994415e+04 0.000000000000e+00 
2.866666667000e+01 9.516302948286e+04 0.000000000000e+00 
2.900000000000e+01 9.513227902249e+04 0.000000000000e+00 
2.933333333000e+01 9.510152856213e+04 0.000000000000e+00 
2.966666667000e+01 9.507077810084e+04 0.000000000000e+00 
3.000000000000e+01 9.504002764047e+04 0.000000000000e+00 
3.033333333000e+01 9.500927718011e+04 0.000000000000e+00 
3.066666667000e+01 9.497852671882e+04 0.000000000000e+00 
3.100000000000e+01 9.494777625845e+04 0.000000000000e+00 
3.133333333000e+01 9.491702579809e+04 0.000000000000e+00 
3.166666667000e+01 9.488627533680e+04 0.000000000000e+00 
3.200000000000e+01 9.485552487643e+04 0.000000000000e+00 
3.233333333000e+01 9.482477441607e+04 0.000000000000e+00 
3.266666667000e+01 9.479402395478e+04 0.000000000000e+00 
3.300000000000e+01 9.476327349441e+04 0.000000000000e+00 
3.333333333000e+01 9.473252303405e+04 0.000000000000e+00 
3.366666667000e+01 9.470177257276e+04 0.000000000000e+00 
3.400000000000e+01 9.467102211239e+04 0.000000000000e+00 
3.433333333000e+01 9.464027165202e+04 0.000000000000e+00 
3.466666667000e+01 9.460952119073e+04 0.000000000000e+00 
3.500000000000e+01 9.457877073037e+04 0.000000000000e+00 
3.533333333000e+01 9.454802027000e+04 0.000000000000e+00 
3.566666667000e+01 9.451726980871e+04 0.000000000000e+00 
3.600000000000e+01 9.448651934834e+04 0.000000000000e+00 
3.633333333000e+01 9.445576888798e+04 0.000000000000e+00 
3.666666667000e+01 9.442501842669e+04 0.000000000000e+00 
3.700000000000e+01 9.439426796632e+04 0.000000000000e+00 
3.733333333000e+01 9.436351750595e+04 0.000000000000e+00 
3.766666667000e+01 9.433276704466e+04 0.000000000000e+00 
3.800000000000e+01 9.430201658430e+04 0.000000000000e+00 
3.833333333000e+01 9.427126612393e+04 0.000000000000e+00 
3.866666667000e+01 9.424051566264e+04 0.000000000000e+00 
3.900000000000e+01 9.420976520227e+04 0.000000000000e+00 
3.933333333000e+01 9.417901474191e+04 0.000000000000e+00 
3.966666667000e+01 9.414826428062e+04 0.000000000000e+00 
4.000000000000e+01 9.411751382025e+04 0.000000000000e+00 
4.033333333000e+01 9.408676335988e+04 0.000000000000e+00 
4.066666667000e+01 9.405601289859e+04 0.000000000000e+00 
4.100000000000e+01 9.402526243822e+04 0.000000000000e+00 
4.133333333000e+01 9.399451197786e+04 0.000000000000e+00 
4.166666667000e+01 9.396376151657e+04 0.000000000000e+00 
4.200000000000e+01 9.393301105620e+04 0.000000000000e+00 
4.233333333000e+01 9.390226059583e+04 0.000000000000e+00 
4.266666667000e+01 9.387151013454e+04 0.000000000000e+00 
4.300000000000e+01 9.384075967417e+04 0.000000000000e+00 
4.333333333000e+01 9.381000921381e+04 0.000000000000e+00 
4.366666667000e+01 9.377925875252e+04 0.000000000000e+00 
4.400000000000e+01 9.374850829215e+04 0.000000000000e+00 
4.433333333000e+01 9.371775783178e+04 0.000000000000e+00 
4.466666667000e+01 9.368700737049e+04 0.000000000000e+00 
4.500000000000e+01 9.365625691012e+04 0.000000000000e+00 
4.533333333000e+01 9.362550644976e+04 0.000000000000e+00 
4.566666667000e+01 9.359475598847e+04 0.000000000000e+00 
4.600000000000e+01 9.356400552810e+04 0.000000000000e+00 
4.633333333000e+01 9.353325506773e+04 0.000000000000e+00 
4.666666667000e+01 9.350250460644e+04 0.000000000000e+00 
4.700000000000e+01 9.347175414608e+04 0.000000000000e+00 
4.733333333000e+01 9.344100368571e+04 0.000000000000e+00 
4.766666667000e+01 9.341025322442e+04 0.000000000000e+00 
4.800000000000e+01 9.337950276405e+04 0.000000000000e+00 
4.833333333000e+01 9.334875230368e+04 0.000000000000e+00 
4.866666667000e+01 9.331800184239e+04 0.000000000000e+00 
4.900000000000e+01 9.328725138203e+04 0.000000000000e+00 
4.933333333000e+01 9.325650092166e+04 0.000000000000e+00 
4.966666667000e+01 9.322575046037e+04 0.000000000000e+00 
5.000000000000e+01 9.319500000000e+04 0.000000000000e+00 
 TITLE = "Profiles along polylines"
 VARIABLES = "DIST" "PRESSURE1" "Tracer" 
 ZONE T="TIME=6.480000000000e+04"
0.000000000000e+00 9.810000000000e+04 1.000000000000e+00 
3.333333330000e-01 9.806924953937e+04 6.802192696519e-01 
6.666666670000e-01 9.803849907864e+04 3.739257718801e-01 
1.000000000000e+00 9.800774861801e+04 1.748343535469e-01 
1.333333333000e+00 9.797699815738e+04 7.311742187872e-02 
1.666666667000e+00 9.794624769665e+04 2.831958174172e-02 
2.000000000000e+00 9.791549723602e+04 1.038154573975e-02 
2.333333333000e+00 9.788474677539e+04 3.652648954344e-03 
2.666666667000e+00 9.785399631467e+04 1.245060849683e-03 
3.000000000000e+00 9.782324585403e+04 4.138568597235e-04 
3.333333333000e+00 9.779249539340e+04 1.347848419822e-04 
3.666666667000e+00 9.776174493268e+04 4.316124058874e-05 
4.000000000000e+00 9.773099447204e+04 1.362646906471e-05 
4.333333333000e+00 9.770024401141e+04 4.252068864998e-06 
4.666666667000e+00 9.766949355069e+04 1.330873644248e-06 
5.000000000000e+00 9.763090480896e+04 4.300926872421e-07 
5.333333333000e+00 9.758170405919e+04 1.418513924310e-07 
5.666666667000e+00 9.753250330927e+04 4.650126549562e-08 
6.000000000000e+00 9.748330255950e+04 1.516085942650e-08 
6.333333333000e+00 9.743410180973e+04 4.918584700329e-09 
6.666666667000e+00 9.738490105981e+04 1.588587432256e-09 
7.000000000000e+00 9.733570031004e+04 5.109841890725e-10 
7.333333333000e+00 9.728649956026e+04 1.637442006445e-10 
7.666666667000e+00 9.723729881035e+04 5.228918006325e-11 
8.000000000000e+00 9.718809806057e+04 1.664473979225e-11 
8.333333333000e+00 9.713889731080e+04 5.276448965829e-12 
8.666666667000e+00 9.708969656088e+04 1.662245692027e-12 
9.000000000000e+00 9.704049581111e+04 5.196571473282e-13 
9.333333333000e+00 9.699129506134e+04 1.612048404459e-13 
9.666666667000e+00 9.694209431142e+04 4.961871456694e-14 
1.000000000000e+01 9.689289356164e+04 1.495478889232e-14 
1.033333333000e+01 9.685430482026e+04 4.289740613062e-15 
1.066666667000e+01 9.682355435898e+04 1.187074134077e-15 
1.100000000000e+01 9.679280389863e+04 3.267102312979e-16 
1.133333333000e+01 9.676205343827e+04 8.946456312635e-17 
1.166666667000e+01 9.673130297699e+04 2.438199734691e-17 
1.200000000000e+01 9.670055251663e+04 6.614753272867e-18 
1.233333333000e+01 9.666980205627e+04 1.786708812962e-18 
1.266666667000e+01 9.663905159499e+04 4.805075022828e-19 
1.300000000000e+01 9.660830113463e+04 1.288606930530e-19 
1.333333333000e+01 9.657755067428e+04 3.447166818337e-20 
1.366666667000e+01 9.654680021299e+04 9.186604968379e-21 
1.400000000000e+01 9.651604975264e+04 2.438819960801e-21 
1.433333333000e+01 9.648529929228e+04 6.448841952375e-22 
1.466666667000e+01 9.645454883100e+04 1.698170903410e-22 
1.500000000000e+01 9.642379837064e+04 4.452280484381e-23 
1.533333333000e+01 9.639304791028e+04 1.161796403805e-23 
1.566666667000e+01 9.636229744900e+04 3.016593211637e-24 
1.600000000000e+01 9.633154698864e+04 7.786928412313e-25 
1.633333333000e+01 9.630079652828e+04 1.998694654757e-25 
1.666666667000e+01 9.627004606699e+04 5.090577179730e-26 
1.700000000000e+01 9.623929560663e+04 1.286232260110e-26 
1.733333333000e+01 9.620854514627e+04 3.230067612004e-27 
1.766666667000e+01 9.617779468499e+04 8.066521010745e-28 
1.800000000000e+01 9.614704422463e+04 2.007292509746e-28 
1.833333333000e+01 9.611629376427e+04 4.960598415290e-29 