 TITLE = "Time curves in points"
 VARIABLES = "TIME "  "Tracer" 
 ZONE T="POINT=POINT4"
0.000000000000e+00 0.000000000000e+00 
2.160000000000e+04 0.000000000000e+00 
4.320000000000e+04 8.148620700564e-25 
6.480000000000e+04 4.597234802136e-23 
8.640000000000e+04 9.540365868063e-22 
1.080000000000e+05 1.205614401709e-20 
1.296000000000e+05 1.110746905314e-19 
1.512000000000e+05 8.182378532687e-19 
1.728000000000e+05 5.058645851643e-18 
1.944000000000e+05 2.722228213597e-17 
2.160000000000e+05 1.302766486562e-16 
2.376000000000e+05 5.634786444033e-16 
2.592000000000e+05 2.228901811771e-15 
2.808000000000e+05 8.139996696687e-15 
3.024000000000e+05 2.765881910332e-14 
3.240000000000e+05 8.800708231304e-14 
3.456000000000e+05 2.636778343014e-13 
3.672000000000e+05 7.474012769937e-13 
3.888000000000e+05 2.012646405227e-12 
4.104000000000e+05 5.168014794314e-12 
4.320000000000e+05 1.269559764000e-11 
4.536000000000e+05 2.992542827681e-11 
4.752000000000e+05 6.786503475676e-11 
4.968000000000e+05 1.484307533740e-10 
5.184000000000e+05 3.137864989422e-10 
5.400000000000e+05 6.424745916006e-10 
5.616000000000e+05 1.276426712807e-09 
5.832000000000e+05 2.464886565023e-09 
6.048000000000e+05 4.633881347330e-09 
6.264000000000e+05 8.493258808517e-09 
6.480000000000e+05 1.519756254032e-08 
6.696000000000e+05 2.658218393534e-08 
6.912000000000e+05 4.550234617630e-08 
7.128000000000e+05 7.630944196816e-08 
7.344000000000e+05 1.255069393224e-07 
7.560000000000e+05 2.026362449462e-07 
7.776000000000e+05 3.214512475930e-07 
7.992000000000e+05 5.014483405805e-07 
8.208000000000e+05 7.698260659753e-07 
8.424000000000e+05 1.163954597077e-06 
8.640000000000e+05 1.734439524655e-06 
8.856000000000e+05 2.548866296307e-06 
9.072000000000e+05 3.696310668130e-06 
9.288000000000e+05 5.292696254197e-06 
9.504000000000e+05 7.487072368783e-06 
9.720000000000e+05 1.046887369697e-05 
9.936000000000e+05 1.447620785671e-05 
1.015200000000e+06 1.980519779734e-05 
1.036800000000e+06 2.682038351112e-05 
1.058400000000e+06 3.596616220465e-05 
1.080000000000e+06 4.777921850290e-05 
1.101600000000e+06 6.290186718085e-05 
1.123200000000e+06 8.209620117310e-05 
1.144800000000e+06 1.062589080906e-04 
1.166400000000e+06 1.364365900946e-04 
1.188000000000e+06 1.738413956183e-04 
1.209600000000e+06 2.198667479811e-04 
1.231200000000e+06 2.761029361087e-04 
1.252800000000e+06 3.443523170721e-04 
1.274400000000e+06 4.266438694808e-04 
1.296000000000e+06 5.252468313008e-04 
1.317600000000e+06 6.426831556407e-04 
1.339200000000e+06 7.817385235253e-04 
1.360800000000e+06 9.454716635647e-04 
1.382400000000e+06 1.137221744499e-03 
1.404000000000e+06 1.360613627481e-03 
1.425600000000e+06 1.619560790174e-03 
1.447200000000e+06 1.918265763705e-03 
1.468800000000e+06 2.261217955573e-03 
1.490400000000e+06 2.653188766063e-03 
1.512000000000e+06 3.099223941823e-03 
1.533600000000e+06 3.604633147260e-03 
1.555200000000e+06 4.174976771592e-03 
1.576800000000e+06 4.816050026054e-03 
1.598400000000e+06 5.533864421160e-03 
1.620000000000e+06 6.334626747621e-03 
1.641600000000e+06 7.224715715773e-03 
1.663200000000e+06 8.210656436908e-03 
1.684800000000e+06 9.299092955205e-03 
1.706400000000e+06 1.049675906088e-02 
1.728000000000e+06 1.181044763315e-02 
1.749600000000e+06 1.324697877628e-02 
1.771200000000e+06 1.481316702205e-02 
1.792800000000e+06 1.651578787899e-02 
1.814400000000e+06 1.836154401119e-02 
1.836000000000e+06 2.035703132912e-02 
1.857600000000e+06 2.250870527022e-02 
1.879200000000e+06 2.482284754014e-02 
1.900800000000e+06 2.730553357466e-02 
1.922400000000e+06 2.996260096973e-02 
1.944000000000e+06 3.279961911181e-02 
1.965600000000e+06 3.582186022328e-02 
1.987200000000e+06 3.903427201913e-02 
2.008800000000e+06 4.244145215080e-02 
2.030400000000e+06 4.604762459220e-02 
2.052000000000e+06 4.985661810100e-02 
2.073600000000e+06 5.387184686642e-02 
2.095200000000e+06 5.809629343254e-02 
2.116800000000e+06 6.253249396434e-02 
2.138400000000e+06 6.718252590211e-02 
2.160000000000e+06 7.204799802931e-02 
2.181600000000e+06 7.713004295869e-02 
2.203200000000e+06 8.242931202306e-02 
2.224800000000e+06 8.794597253864e-02 
2.246400000000e+06 9.367970739322e-02 
2.268000000000e+06 9.962971689538e-02 
2.289600000000e+06 1.057947228079e-01 
2.311200000000e+06 1.121729744758e-01 
2.332800000000e+06 1.187622569486e-01 
2.354400000000e+06 1.255599009874e-01 
2.376000000000e+06 1.325627948391e-01 
2.397600000000e+06 1.397673976529e-01 
2.419200000000e+06 1.471697544118e-01 
2.440800000000e+06 1.547655122432e-01 
2.462400000000e+06 1.625499379763e-01 
2.484000000000e+06 1.705179368066e-01 
2.505600000000e+06 1.786640719326e-01 
2.527200000000e+06 1.869825850273e-01 
2.548800000000e+06 1.954674174102e-01 
2.570400000000e+06 2.041122317887e-01 
2.592000000000e+06 2.129104344395e-01 
2.613600000000e+06 2.218551977074e-01 
2.635200000000e+06 2.309394826995e-01 
2.656800000000e+06 2.401560620636e-01 
2.678400000000e+06 2.494975427391e-01 
2.700000000000e+06 2.589563885806e-01 
2.721600000000e+06 2.685249427558e-01 
2.743200000000e+06 2.781954498294e-01 
2.764800000000e+06 2.879600774490e-01 
2.786400000000e+06 2.978109375574e-01 
2.808000000000e+06 3.077401070613e-01 
2.829600000000e+06 3.177396478940e-01 
2.851200000000e+06 3.278016264157e-01 
2.872800000000e+06 3.379181321022e-01 
2.894400000000e+06 3.480812954788e-01 
2.916000000000e+06 3.582833052625e-01 
2.937600000000e+06 3.685164246825e-01 
2.959200000000e+06 3.787730069520e-01 
2.980800000000e+06 3.890455098746e-01 
3.002400000000e+06 3.993265095692e-01 
3.024000000000e+06 4.096087133042e-01 
3.045600000000e+06 4.198849714377e-01 
3.067200000000e+06 4.301482884629e-01 
3.088800000000e+06 4.403918331616e-01 
3.110400000000e+06 4.506089478759e-01 
3.132000000000e+06 4.607931569065e-01 
3.153600000000e+06 4.709381740547e-01 
3.175200000000e+06 4.810379093221e-01 
3.196800000000e+06 4.910864747916e-01 
3.218400000000e+06 5.010781897078e-01 
3.240000000000e+06 5.110075847842e-01 
3.261600000000e+06 5.208694057606e-01 
3.283200000000e+06 5.306586162398e-01 
3.304800000000e+06 5.403703998306e-01 
3.326400000000e+06 5.500001616281e-01 
3.348000000000e+06 5.595435290611e-01 
3.369600000000e+06 5.689963521373e-01 
3.391200000000e+06 5.783547031183e-01 
3.412800000000e+06 5.876148756564e-01 
3.434400000000e+06 5.967733834238e-01 
3.456000000000e+06 6.058269582676e-01 
3.477600000000e+06 6.147725479201e-01 
3.499200000000e+06 6.236073132979e-01 
3.520800000000e+06 6.323286254186e-01 
3.542400000000e+06 6.409340619665e-01 
3.564000000000e+06 6.494214035361e-01 
3.585600000000e+06 6.577886295827e-01 
3.607200000000e+06 6.660339141085e-01 
3.628800000000e+06 6.741556211101e-01 
3.650400000000e+06 6.821522998151e-01 
3.672000000000e+06 6.900226797327e-01 
3.693600000000e+06 6.977656655419e-01 
3.715200000000e+06 7.053803318421e-01 
3.736800000000e+06 7.128659177867e-01 
3.758400000000e+06 7.202218216230e-01 
3.780000000000e+06 7.274475951561e-01 
3.801600000000e+06 7.345429381589e-01 
3.823200000000e+06 7.415076927431e-01 
3.844800000000e+06 7.483418377117e-01 
3.866400000000e+06 7.550454829054e-01 
3.888000000000e+06 7.616188635609e-01 
3.909600000000e+06 7.680623346936e-01 
3.931200000000e+06 7.743763655181e-01 
3.952800000000e+06 7.805615339175e-01 
3.974400000000e+06 7.866185209751e-01 
3.996000000000e+06 7.925481055757e-01 
4.017600000000e+06 7.983511590877e-01 
4.039200000000e+06 8.040286401348e-01 
4.060800000000e+06 8.095815894622e-01 
4.082400000000e+06 8.150111249083e-01 
4.104000000000e+06 8.203184364842e-01 
4.125600000000e+06 8.255047815688e-01 
4.147200000000e+06 8.305714802230e-01 
4.168800000000e+06 8.355199106277e-01 
4.190400000000e+06 8.403515046487e-01 
4.212000000000e+06 8.450677435317e-01 
4.233600000000e+06 8.496701537288e-01 
4.255200000000e+06 8.541603028597e-01 
4.276800000000e+06 8.585397958081e-01 
4.298400000000e+06 8.628102709531e-01 
4.320000000000e+06 8.669733965388e-01 
4.341600000000e+06 8.710308671790e-01 
4.363200000000e+06 8.749844004991e-01 
4.384800000000e+06 8.788357339126e-01 
4.406400000000e+06 8.825866215326e-01 
4.428000000000e+06 8.862388312167e-01 
4.449600000000e+06 8.897941417432e-01 
4.471200000000e+06 8.932543401171e-01 
4.492800000000e+06 8.966212190043e-01 
4.514400000000e+06 8.998965742915e-01 
4.536000000000e+06 9.030822027686e-01 
4.557600000000e+06 9.061798999332e-01 
4.579200000000e+06 9.091914579122e-01 
4.600800000000e+06 9.121186634989e-01 
4.622400000000e+06 9.149632963031e-01 
4.644000000000e+06 9.177271270097e-01 
4.665600000000e+06 9.204119157451e-01 
4.687200000000e+06 9.230194105455e-01 
4.708800000000e+06 9.255513459267e-01 
4.730400000000e+06 9.280094415498e-01 
4.752000000000e+06 9.303954009819e-01 
4.773600000000e+06 9.327109105467e-01 
4.795200000000e+06 9.349576382626e-01 
4.816800000000e+06 9.371372328656e-01 
4.838400000000e+06 9.392513229126e-01 
4.860000000000e+06 9.413015159630e-01 
4.881600000000e+06 9.432893978352e-01 
4.903200000000e+06 9.452165319347e-01 
4.924800000000e+06 9.470844586507e-01 
4.946400000000e+06 9.488946948187e-01 
4.968000000000e+06 9.506487332453e-01 
4.989600000000e+06 9.523480422937e-01 
5.011200000000e+06 9.539940655255e-01 
5.032800000000e+06 9.555882213967e-01 
5.054400000000e+06 9.571319030057e-01 
5.076000000000e+06 9.586264778900e-01 
5.097600000000e+06 9.600732878690e-01 
5.119200000000e+06 9.614736489306e-01 
5.140800000000e+06 9.628288511599e-01 
5.162400000000e+06 9.641401587059e-01 
5.184000000000e+06 9.654088097858e-01 
5.205600000000e+06 9.666360167233e-01 
5.227200000000e+06 9.678229660194e-01 
5.248800000000e+06 9.689708184540e-01 
5.270400000000e+06 9.700807092153e-01 
5.292000000000e+06 9.711537480558e-01 
5.313600000000e+06 9.721910194732e-01 
5.335200000000e+06 9.731935829137e-01 
5.356800000000e+06 9.741624729966e-01 
5.378400000000e+06 9.750986997585e-01 
5.400000000000e+06 9.760032489154e-01 
5.421600000000e+06 9.768770821411e-01 
5.443200000000e+06 9.777211373609e-01 
5.464800000000e+06 9.785363290583e-01 
5.486400000000e+06 9.793235485951e-01 
5.508000000000e+06 9.800836645415e-01 
5.529600000000e+06 9.808175230167e-01 
5.551200000000e+06 9.815259480387e-01 
5.572800000000e+06 9.822097418805e-01 
5.594400000000e+06 9.828696854345e-01 
5.616000000000e+06 9.835065385819e-01 
5.637600000000e+06 9.841210405670e-01 
5.659200000000e+06 9.847139103755e-01 
5.680800000000e+06 9.852858471163e-01 
5.702400000000e+06 9.858375304052e-01 
5.724000000000e+06 9.863696207510e-01 
5.745600000000e+06 9.868827599421e-01 
5.767200000000e+06 9.873775714336e-01 
5.788800000000e+06 9.878546607345e-01 
5.810400000000e+06 9.883146157939e-01 
5.832000000000e+06 9.887580073859e-01 
5.853600000000e+06 9.891853894933e-01 
5.875200000000e+06 9.895972996884e-01 
5.896800000000e+06 9.899942595119e-01 
5.918400000000e+06 9.903767748483e-01 
5.940000000000e+06 9.907453362984e-01 
5.961600000000e+06 9.911004195479e-01 
5.983200000000e+06 9.914424857320e-01 
6.004800000000e+06 9.917719817966e-01 
6.026400000000e+06 9.920893408537e-01 
6.048000000000e+06 9.923949825332e-01 
6.069600000000e+06 9.926893133296e-01 
6.091200000000e+06 9.929727269433e-01 
6.112800000000e+06 9.932456046173e-01 
6.134400000000e+06 9.935083154678e-01 
6.156000000000e+06 9.937612168100e-01 
6.177600000000e+06 9.940046544782e-01 
6.199200000000e+06 9.942389631396e-01 
6.220800000000e+06 9.944644666034e-01 
6.242400000000e+06 9.946814781234e-01 
6.264000000000e+06 9.948903006947e-01 
6.285600000000e+06 9.950912273450e-01 
6.307200000000e+06 9.952845414196e-01 
6.328800000000e+06 9.954705168606e-01 
6.350400000000e+06 9.956494184803e-01 
6.372000000000e+06 9.958215022282e-01 
6.393600000000e+06 9.959870154530e-01 
6.415200000000e+06 9.961461971576e-01 
6.436800000000e+06 9.962992782492e-01 
6.458400000000e+06 9.964464817829e-01 
6.480000000000e+06 9.965880232002e-01 
6.501600000000e+06 9.967241105610e-01 
6.523200000000e+06 9.968549447706e-01 
6.544800000000e+06 9.969807198006e-01 
6.566400000000e+06 9.971016229047e-01 
6.588000000000e+06 9.972178348287e-01 
6.609600000000e+06 9.973295300153e-01 
6.631200000000e+06 9.974368768031e-01 
6.652800000000e+06 9.975400376214e-01 
6.674400000000e+06 9.976391691784e-01 
6.696000000000e+06 9.977344226458e-01 
6.717600000000e+06 9.978259438368e-01 
6.739200000000e+06 9.979138733812e-01 
6.760800000000e+06 9.979983468933e-01 
6.782400000000e+06 9.980794951372e-01 
6.804000000000e+06 9.981574441863e-01 
6.825600000000e+06 9.982323155782e-01 
6.847200000000e+06 9.983042264659e-01 
6.868800000000e+06 9.983732897638e-01 
6.890400000000e+06 9.984396142901e-01 
6.912000000000e+06 9.985033049043e-01 
6.933600000000e+06 9.985644626417e-01 
6.955200000000e+06 9.986231848422e-01 
6.976800000000e+06 9.986795652774e-01 
6.998400000000e+06 9.987336942716e-01 
7.020000000000e+06 9.987856588209e-01 
7.041600000000e+06 9.988355427077e-01 
7.063200000000e+06 9.988834266119e-01 
7.084800000000e+06 9.989293882184e-01 
7.106400000000e+06 9.989735023218e-01 
7.128000000000e+06 9.990158409272e-01 
7.149600000000e+06 9.990564733485e-01 
7.171200000000e+06 9.990954663024e-01 
7.192800000000e+06 9.991328840010e-01 
7.214400000000e+06 9.991687882396e-01 
7.236000000000e+06 9.992032384836e-01 
7.257600000000e+06 9.992362919508e-01 
7.279200000000e+06 9.992680036922e-01 
7.300800000000e+06 9.992984266696e-01 
7.322400000000e+06 9.993276118308e-01 
7.344000000000e+06 9.993556081822e-01 
7.365600000000e+06 9.993824628592e-01 
7.387200000000e+06 9.994082211940e-01 
7.408800000000e+06 9.994329267813e-01 
7.430400000000e+06 9.994566215416e-01 
7.452000000000e+06 9.994793457825e-01 
7.473600000000e+06 9.995011382581e-01 
7.495200000000e+06 9.995220362256e-01 
7.516800000000e+06 9.995420755012e-01 
7.538400000000e+06 9.995612905126e-01 
7.560000000000e+06 9.995797143512e-01 
7.581600000000e+06 9.995973788213e-01 
7.603200000000e+06 9.996143144882e-01 
7.624800000000e+06 9.996305507242e-01 
7.646400000000e+06 9.996461157538e-01 
7.668000000000e+06 9.996610366959e-01 
7.689600000000e+06 9.996753396064e-01 
7.711200000000e+06 9.996890495171e-01 
7.732800000000e+06 9.997021904754e-01 
7.754400000000e+06 9.997147855808e-01 
7.776000000000e+06 9.997268570214e-01 
7.797600000000e+06 9.997384261080e-01 
7.819200000000e+06 9.997495133079e-01 
7.840800000000e+06 9.997601382769e-01 
7.862400000000e+06 9.997703198905e-01 
7.884000000000e+06 9.997800762733e-01 
7.905600000000e+06 9.997894248287e-01 
7.927200000000e+06 9.997983822656e-01 
7.948800000000e+06 9.998069646260e-01 
7.970400000000e+06 9.998151873102e-01 
7.992000000000e+06 9.998230651020e-01 
8.013600000000e+06 9.998306121924e-01 
8.035200000000e+06 9.998378422023e-01 
8.056800000000e+06 9.998447682055e-01 
8.078400000000e+06 9.998514027489e-01 
8.100000000000e+06 9.998577578742e-01 
8.121600000000e+06 9.998638451367e-01 
8.143200000000e+06 9.998696756249e-01 
8.164800000000e+06 9.998752599786e-01 
8.186400000000e+06 9.998806084065e-01 
8.208000000000e+06 9.998857307033e-01 
8.229600000000e+06 9.998906362659e-01 
8.251200000000e+06 9.998953341091e-01 
8.272800000000e+06 9.998998328808e-01 
8.294400000000e+06 9.999041408764e-01 
8.316000000000e+06 9.999082660528e-01 
8.337600000000e+06 9.999122160420e-01 
8.359200000000e+06 9.999159981637e-01 
8.380800000000e+06 9.999196194382e-01 
8.402400000000e+06 9.999230865978e-01 
8.424000000000e+06 9.999264060988e-01 
8.445600000000e+06 9.999295841320e-01 
8.467200000000e+06 9.999326266340e-01 
8.488800000000e+06 9.999355392969e-01 
8.510400000000e+06 9.999383275782e-01 
8.532000000000e+06 9.999409967103e-01 
8.553600000000e+06 9.999435517096e-01 
8.575200000000e+06 9.999459973852e-01 
8.596800000000e+06 9.999483383471e-01 
8.618400000000e+06 9.999505790146e-01 
8.640000000000e+06 9.999527236236e-01 
8.661600000000e+06 9.999547762344e-01 
8.683200000000e+06 9.999567407384e-01 
8.704800000000e+06 9.999586208656e-01 
8.726400000000e+06 9.999604201904e-01 
8.748000000000e+06 9.999621421385e-01 
8.769600000000e+06 9.999637899929e-01 
8.791200000000e+06 9.999653668994e-01 
8.812800000000e+06 9.999668758725e-01 
8.834400000000e+06 9.999683198007e-01 
8.856000000000e+06 9.999697014517e-01 
8.877600000000e+06 9.999710234771e-01 
8.899200000000e+06 9.999722884175e-01 
8.920800000000e+06 9.999734987070e-01 
8.942400000000e+06 9.999746566774e-01 
8.964000000000e+06 9.999757645626e-01 
8.985600000000e+06 9.999768245024e-01 
9.007200000000e+06 9.999778385467e-01 
9.028800000000e+06 9.999788086590e-01 
9.050400000000e+06 9.999797367200e-01 
9.072000000000e+06 9.999806245311e-01 
9.093600000000e+06 9.999814738175e-01 
9.115200000000e+06 9.999822862318e-01 
9.136800000000e+06 9.999830633563e-01 
9.158400000000e+06 9.999838067067e-01 
9.180000000000e+06 9.999845177343e-01 
9.201600000000e+06 9.999851978290e-01 
9.223200000000e+06 9.999858483216e-01 
9.244800000000e+06 9.999864704866e-01 
9.266400000000e+06 9.999870655441e-01 
9.288000000000e+06 9.999876346626e-01 
9.309600000000e+06 9.999881789607e-01 
9.331200000000e+06 9.999886995096e-01 
9.352800000000e+06 9.999891973345e-01 
9.374400000000e+06 9.999896734172e-01 
9.396000000000e+06 9.999901286976e-01 
9.417600000000e+06 9.999905640754e-01 
9.439200000000e+06 9.999909804118e-01 
9.460800000000e+06 9.999913785312e-01 
9.482400000000e+06 9.999917592229e-01 
9.504000000000e+06 9.999921232423e-01 
9.525600000000e+06 9.999924713124e-01 
9.547200000000e+06 9.999928041252e-01 
9.568800000000e+06 9.999931223433e-01 
9.590400000000e+06 9.999934266004e-01 
9.612000000000e+06 9.999937175034e-01 
9.633600000000e+06 9.999939956329e-01 
9.655200000000e+06 9.999942615446e-01 
9.676800000000e+06 9.999945157702e-01 
9.698400000000e+06 9.999947588188e-01 
9.720000000000e+06 9.999949911772e-01 
9.741600000000e+06 9.999952133115e-01 
9.763200000000e+06 9.999954256675e-01 
9.784800000000e+06 9.999956286719e-01 
9.806400000000e+06 9.999958227329e-01 
9.828000000000e+06 9.999960082412e-01 
9.849600000000e+06 9.999961855704e-01 
9.871200000000e+06 9.999963550781e-01 
9.892800000000e+06 9.999965171064e-01 
9.914400000000e+06 9.999966719825e-01 
9.936000000000e+06 9.999968200196e-01 
9.957600000000e+06 9.999969615171e-01 
9.979200000000e+06 9.999970967616e-01 
1.000080000000e+07 9.999972260272e-01 
1.002240000000e+07 9.999973495761e-01 
1.004400000000e+07 9.999974676590e-01 
1.006560000000e+07 9.999975805160e-01 
1.008720000000e+07 9.999976883765e-01 
1.010880000000e+07 9.999977914599e-01 
1.013040000000e+07 9.999978899763e-01 
1.015200000000e+07 9.999979841264e-01 
1.017360000000e+07 9.999980741023e-01 
1.019520000000e+07 9.999981600876e-01 
1.021680000000e+07 9.999982422581e-01 
1.023840000000e+07 9.999983207817e-01 
1.026000000000e+07 9.999983958191e-01 
1.028160000000e+07 9.999984675240e-01 
1.030320000000e+07 9.999985360432e-01 
1.032480000000e+07 9.999986015173e-01 
1.034640000000e+07 9.999986640808e-01 
1.036800000000e+07 9.999987238620e-01 
1.038960000000e+07 9.999987809838e-01 
1.041120000000e+07 9.999988355637e-01 
1.043280000000e+07 9.999988877141e-01 
1.045440000000e+07 9.999989375424e-01 
1.047600000000e+07 9.999989851512e-01 
1.049760000000e+07 9.999990306388e-01 
1.051920000000e+07 9.999990740990e-01 
1.054080000000e+07 9.999991156216e-01 
1.056240000000e+07 9.999991552925e-01 
1.058400000000e+07 9.999991931936e-01 
1.060560000000e+07 9.999992294034e-01 
1.062720000000e+07 9.999992639970e-01 
1.064880000000e+07 9.999992970459e-01 
1.067040000000e+07 9.999993286188e-01 
1.069200000000e+07 9.999993587811e-01 
1.071360000000e+07 9.999993875954e-01 
1.073520000000e+07 9.999994151217e-01 
1.075680000000e+07 9.999994414172e-01 
1.077840000000e+07 9.999994665365e-01 
1.080000000000e+07 9.999994905320e-01 
