VARIABLES  = "X","Y","Z", "Comp_A", "Comp_B", "Comp_C", "Comp_D", "Comp_E", "Biomass", "ConsTracer"
ZONE T="0.000000000000e+000s", N=51, E=50, F=FEPOINT, ET=QUADRILATERAL
0.000000000000e+000 0.000000000000e+000 0.000000000000e+000 0.000000000000e+000 0.000000000000e+000 0.000000000000e+000 0.000000000000e+000 0.000000000000e+000 1.000000000000e-009 0.000000000000e+000 
2.000000000000e-001 0.000000000000e+000 0.000000000000e+000 0.000000000000e+000 0.000000000000e+000 0.000000000000e+000 0.000000000000e+000 0.000000000000e+000 1.000000000000e-009 0.000000000000e+000 
4.000000000000e-001 0.000000000000e+000 0.000000000000e+000 0.000000000000e+000 0.000000000000e+000 0.000000000000e+000 0.000000000000e+000 0.000000000000e+000 1.000000000000e-009 0.000000000000e+000 
6.000000000000e-001 0.000000000000e+000 0.000000000000e+000 0.000000000000e+000 0.000000000000e+000 0.000000000000e+000 0.000000000000e+000 0.000000000000e+000 1.000000000000e-009 0.000000000000e+000 
8.000000000000e-001 0.000000000000e+000 0.000000000000e+000 0.000000000000e+000 0.000000000000e+000 0.000000000000e+000 0.000000000000e+000 0.000000000000e+000 1.000000000000e-009 0.000000000000e+000 
1.000000000000e+000 0.000000000000e+000 0.000000000000e+000 0.000000000000e+000 0.000000000000e+000 0.000000000000e+000 0.000000000000e+000 0.000000000000e+000 1.000000000000e-009 0.000000000000e+000 
1.200000000000e+000 0.000000000000e+000 0.000000000000e+000 0.000000000000e+000 0.000000000000e+000 0.000000000000e+000 0.000000000000e+000 0.000000000000e+000 1.000000000000e-009 0.000000000000e+000 
1.400000000000e+000 0.000000000000e+000 0.000000000000e+000 0.000000000000e+000 0.000000000000e+000 0.000000000000e+000 0.000000000000e+000 0.000000000000e+000 1.000000000000e-009 0.000000000000e+000 
1.600000000000e+000 0.000000000000e+000 0.000000000000e+000 0.000000000000e+000 0.000000000000e+000 0.000000000000e+000 0.000000000000e+000 0.000000000000e+000 1.000000000000e-009 0.000000000000e+000 
1.800000000000e+000 0.000000000000e+000 0.000000000000e+000 0.000000000000e+000 0.000000000000e+000 0.000000000000e+000 0.000000000000e+000 0.000000000000e+000 1.000000000000e-009 0.000000000000e+000 
2.000000000000e+000 0.000000000000e+000 0.000000000000e+000 0.000000000000e+000 0.000000000000e+000 0.000000000000e+000 0.000000000000e+000 0.000000000000e+000 1.000000000000e-009 0.000000000000e+000 
2.200000000000e+000 0.000000000000e+000 0.000000000000e+000 0.000000000000e+000 0.000000000000e+000 0.000000000000e+000 0.000000000000e+000 0.000000000000e+000 1.000000000000e-009 0.000000000000e+000 
2.400000000000e+000 0.000000000000e+000 0.000000000000e+000 0.000000000000e+000 0.000000000000e+000 0.000000000000e+000 0.000000000000e+000 0.000000000000e+000 1.000000000000e-009 0.000000000000e+000 
2.600000000000e+000 0.000000000000e+000 0.000000000000e+000 0.000000000000e+000 0.000000000000e+000 0.000000000000e+000 0.000000000000e+000 0.000000000000e+000 1.000000000000e-009 0.000000000000e+000 
2.800000000000e+000 0.000000000000e+000 0.000000000000e+000 0.000000000000e+000 0.000000000000e+000 0.000000000000e+000 0.000000000000e+000 0.000000000000e+000 1.000000000000e-009 0.000000000000e+000 
3.000000000000e+000 0.000000000000e+000 0.000000000000e+000 0.000000000000e+000 0.000000000000e+000 0.000000000000e+000 0.000000000000e+000 0.000000000000e+000 1.000000000000e-009 0.000000000000e+000 
3.200000000000e+000 0.000000000000e+000 0.000000000000e+000 0.000000000000e+000 0.000000000000e+000 0.000000000000e+000 0.000000000000e+000 0.000000000000e+000 1.000000000000e-009 0.000000000000e+000 
3.400000000000e+000 0.000000000000e+000 0.000000000000e+000 0.000000000000e+000 0.000000000000e+000 0.000000000000e+000 0.000000000000e+000 0.000000000000e+000 1.000000000000e-009 0.000000000000e+000 
3.600000000000e+000 0.000000000000e+000 0.000000000000e+000 0.000000000000e+000 0.000000000000e+000 0.000000000000e+000 0.000000000000e+000 0.000000000000e+000 1.000000000000e-009 0.000000000000e+000 
3.800000000000e+000 0.000000000000e+000 0.000000000000e+000 0.000000000000e+000 0.000000000000e+000 0.000000000000e+000 0.000000000000e+000 0.000000000000e+000 1.000000000000e-009 0.000000000000e+000 
4.000000000000e+000 0.000000000000e+000 0.000000000000e+000 0.000000000000e+000 0.000000000000e+000 0.000000000000e+000 0.000000000000e+000 0.000000000000e+000 1.000000000000e-009 0.000000000000e+000 
4.200000000000e+000 0.000000000000e+000 0.000000000000e+000 0.000000000000e+000 0.000000000000e+000 0.000000000000e+000 0.000000000000e+000 0.000000000000e+000 1.000000000000e-009 0.000000000000e+000 
4.400000000000e+000 0.000000000000e+000 0.000000000000e+000 0.000000000000e+000 0.000000000000e+000 0.000000000000e+000 0.000000000000e+000 0.000000000000e+000 1.000000000000e-009 0.000000000000e+000 
4.600000000000e+000 0.000000000000e+000 0.000000000000e+000 0.000000000000e+000 0.000000000000e+000 0.000000000000e+000 0.000000000000e+000 0.000000000000e+000 1.000000000000e-009 0.000000000000e+000 
4.800000000000e+000 0.000000000000e+000 0.000000000000e+000 0.000000000000e+000 0.000000000000e+000 0.000000000000e+000 0.000000000000e+000 0.000000000000e+000 1.000000000000e-009 0.000000000000e+000 
5.000000000000e+000 0.000000000000e+000 0.000000000000e+000 0.000000000000e+000 0.000000000000e+000 0.000000000000e+000 0.000000000000e+000 0.000000000000e+000 1.000000000000e-009 0.000000000000e+000 
5.200000000000e+000 0.000000000000e+000 0.000000000000e+000 0.000000000000e+000 0.000000000000e+000 0.000000000000e+000 0.000000000000e+000 0.000000000000e+000 1.000000000000e-009 0.000000000000e+000 
5.400000000000e+000 0.000000000000e+000 0.000000000000e+000 0.000000000000e+000 0.000000000000e+000 0.000000000000e+000 0.000000000000e+000 0.000000000000e+000 1.000000000000e-009 0.000000000000e+000 
5.600000000000e+000 0.000000000000e+000 0.000000000000e+000 0.000000000000e+000 0.000000000000e+000 0.000000000000e+000 0.000000000000e+000 0.000000000000e+000 1.000000000000e-009 0.000000000000e+000 
5.800000000000e+000 0.000000000000e+000 0.000000000000e+000 0.000000000000e+000 0.000000000000e+000 0.000000000000e+000 0.000000000000e+000 0.000000000000e+000 1.000000000000e-009 0.000000000000e+000 
6.000000000000e+000 0.000000000000e+000 0.000000000000e+000 0.000000000000e+000 0.000000000000e+000 0.000000000000e+000 0.000000000000e+000 0.000000000000e+000 1.000000000000e-009 0.000000000000e+000 
6.200000000000e+000 0.000000000000e+000 0.000000000000e+000 0.000000000000e+000 0.000000000000e+000 0.000000000000e+000 0.000000000000e+000 0.000000000000e+000 1.000000000000e-009 0.000000000000e+000 
6.400000000000e+000 0.000000000000e+000 0.000000000000e+000 0.000000000000e+000 0.000000000000e+000 0.000000000000e+000 0.000000000000e+000 0.000000000000e+000 1.000000000000e-009 0.000000000000e+000 
6.600000000000e+000 0.000000000000e+000 0.000000000000e+000 0.000000000000e+000 0.000000000000e+000 0.000000000000e+000 0.000000000000e+000 0.000000000000e+000 1.000000000000e-009 0.000000000000e+000 
6.800000000000e+000 0.000000000000e+000 0.000000000000e+000 0.000000000000e+000 0.000000000000e+000 0.000000000000e+000 0.000000000000e+000 0.000000000000e+000 1.000000000000e-009 0.000000000000e+000 
7.000000000000e+000 0.000000000000e+000 0.000000000000e+000 0.000000000000e+000 0.000000000000e+000 0.000000000000e+000 0.000000000000e+000 0.000000000000e+000 1.000000000000e-009 0.000000000000e+000 
7.200000000000e+000 0.000000000000e+000 0.000000000000e+000 0.000000000000e+000 0.000000000000e+000 0.000000000000e+000 0.000000000000e+000 0.000000000000e+000 1.000000000000e-009 0.000000000000e+000 
7.400000000000e+000 0.000000000000e+000 0.000000000000e+000 0.000000000000e+000 0.000000000000e+000 0.000000000000e+000 0.000000000000e+000 0.000000000000e+000 1.000000000000e-009 0.000000000000e+000 
7.600000000000e+000 0.000000000000e+000 0.000000000000e+000 0.000000000000e+000 0.000000000000e+000 0.000000000000e+000 0.000000000000e+000 0.000000000000e+000 1.000000000000e-009 0.000000000000e+000 
7.800000000000e+000 0.000000000000e+000 0.000000000000e+000 0.000000000000e+000 0.000000000000e+000 0.000000000000e+000 0.000000000000e+000 0.000000000000e+000 1.000000000000e-009 0.000000000000e+000 
8.000000000000e+000 0.000000000000e+000 0.000000000000e+000 0.000000000000e+000 0.000000000000e+000 0.000000000000e+000 0.000000000000e+000 0.000000000000e+000 1.000000000000e-009 0.000000000000e+000 
8.200000000000e+000 0.000000000000e+000 0.000000000000e+000 0.000000000000e+000 0.000000000000e+000 0.000000000000e+000 0.000000000000e+000 0.000000000000e+000 1.000000000000e-009 0.000000000000e+000 
8.400000000000e+000 0.000000000000e+000 0.000000000000e+000 0.000000000000e+000 0.000000000000e+000 0.000000000000e+000 0.000000000000e+000 0.000000000000e+000 1.000000000000e-009 0.000000000000e+000 
8.600000000000e+000 0.000000000000e+000 0.000000000000e+000 0.000000000000e+000 0.000000000000e+000 0.000000000000e+000 0.000000000000e+000 0.000000000000e+000 1.000000000000e-009 0.000000000000e+000 
8.800000000000e+000 0.000000000000e+000 0.000000000000e+000 0.000000000000e+000 0.000000000000e+000 0.000000000000e+000 0.000000000000e+000 0.000000000000e+000 1.000000000000e-009 0.000000000000e+000 
9.000000000000e+000 0.000000000000e+000 0.000000000000e+000 0.000000000000e+000 0.000000000000e+000 0.000000000000e+000 0.000000000000e+000 0.000000000000e+000 1.000000000000e-009 0.000000000000e+000 
9.200000000000e+000 0.000000000000e+000 0.000000000000e+000 0.000000000000e+000 0.000000000000e+000 0.000000000000e+000 0.000000000000e+000 0.000000000000e+000 1.000000000000e-009 0.000000000000e+000 
9.400000000000e+000 0.000000000000e+000 0.000000000000e+000 0.000000000000e+000 0.000000000000e+000 0.000000000000e+000 0.000000000000e+000 0.000000000000e+000 1.000000000000e-009 0.000000000000e+000 
9.600000000000e+000 0.000000000000e+000 0.000000000000e+000 0.000000000000e+000 0.000000000000e+000 0.000000000000e+000 0.000000000000e+000 0.000000000000e+000 1.000000000000e-009 0.000000000000e+000 
9.800000000000e+000 0.000000000000e+000 0.000000000000e+000 0.000000000000e+000 0.000000000000e+000 0.000000000000e+000 0.000000000000e+000 0.000000000000e+000 1.000000000000e-009 0.000000000000e+000 
1.000000000000e+001 0.000000000000e+000 0.000000000000e+000 0.000000000000e+000 0.000000000000e+000 0.000000000000e+000 0.000000000000e+000 0.000000000000e+000 1.000000000000e-009 0.000000000000e+000 
1  2  2  1
2  3  3  2
3  4  4  3
4  5  5  4
5  6  6  5
6  7  7  6
7  8  8  7
8  9  9  8
9  10  10  9
10  11  11  10
11  12  12  11
12  13  13  12
13  14  14  13
14  15  15  14
15  16  16  15
16  17  17  16
17  18  18  17
18  19  19  18
19  20  20  19
20  21  21  20
21  22  22  21
22  23  23  22
23  24  24  23
24  25  25  24
25  26  26  25
26  27  27  26
27  28  28  27
28  29  29  28
29  30  30  29
30  31  31  30
31  32  32  31
32  33  33  32
33  34  34  33
34  35  35  34
35  36  36  35
36  37  37  36
37  38  38  37
38  39  39  38
39  40  40  39
40  41  41  40
41  42  42  41
42  43  43  42
43  44  44  43
44  45  45  44
45  46  46  45
46  47  47  46
47  48  48  47
48  49  49  48
49  50  50  49
50  51  51  50
VARIABLES  = "X","Y","Z", "Comp_A", "Comp_B", "Comp_C", "Comp_D", "Comp_E", "Biomass", "ConsTracer"
ZONE T="3.456000000000e+005s", N=51, E=50, F=FEPOINT, ET=QUADRILATERAL
0.000000000000e+000 0.000000000000e+000 0.000000000000e+000 2.000000000000e-001 1.350000000000e+000 2.893509347965e-007 7.595462038407e-007 2.893509347965e-007 1.000000000000e-009 2.000000000000e-001 
2.000000000000e-001 0.000000000000e+000 0.000000000000e+000 1.975645998680e-001 1.333560829187e+000 3.213088044482e-007 8.434356116765e-007 3.213088044482e-007 1.499987886435e-006 1.975646153012e-001 
4.000000000000e-001 0.000000000000e+000 0.000000000000e+000 1.941779909793e-001 1.310701103673e+000 3.235779722830e-007 8.493921772428e-007 3.235779722830e-007 1.189181773079e-006 1.941780145187e-001 
6.000000000000e-001 0.000000000000e+000 0.000000000000e+000 1.897088548967e-001 1.280534405323e+000 2.974978303412e-007 7.809318046456e-007 2.974978303412e-007 8.847056518543e-007 1.897088805269e-001 
8.000000000000e-001 0.000000000000e+000 0.000000000000e+000 1.840560181510e-001 1.242377776568e+000 2.573996288675e-007 6.756740257771e-007 2.573996288675e-007 6.328948690623e-007 1.840560424282e-001 
1.000000000000e+000 0.000000000000e+000 0.000000000000e+000 1.771607080430e-001 1.195834476369e+000 2.132247914850e-007 5.597150776482e-007 2.132247914850e-007 4.397880308084e-007 1.771607293007e-001 
1.200000000000e+000 0.000000000000e+000 0.000000000000e+000 1.690167275551e-001 1.140862658972e+000 1.709637919320e-007 4.487799538215e-007 1.709637919320e-007 2.990011028717e-007 1.690167452411e-001 
1.400000000000e+000 0.000000000000e+000 0.000000000000e+000 1.596771642586e-001 1.077820656474e+000 1.336722415418e-007 3.508896340471e-007 1.336722415418e-007 1.999988087246e-007 1.596771784531e-001 
1.600000000000e+000 0.000000000000e+000 0.000000000000e+000 1.492565273507e-001 1.007481401531e+000 1.024671530032e-007 2.689762766333e-007 1.024671530032e-007 1.322124104293e-007 1.492565384444e-001 
1.800000000000e+000 0.000000000000e+000 0.000000000000e+000 1.379276904974e-001 9.310117897749e-001 7.731955901896e-008 2.029638424247e-007 7.731955901896e-008 8.671754981282e-008 1.379276989944e-001 
2.000000000000e+000 0.000000000000e+000 0.000000000000e+000 1.259136219886e-001 8.499168571225e-001 5.761176554349e-008 1.512308845516e-007 5.761176554349e-008 5.663470719552e-008 1.259136283956e-001 
2.200000000000e+000 0.000000000000e+000 0.000000000000e+000 1.134745312244e-001 7.659530177604e-001 4.249292218184e-008 1.115439207273e-007 4.249292218184e-008 3.695595334068e-008 1.134745359966e-001 
2.400000000000e+000 0.000000000000e+000 0.000000000000e+000 1.008916444707e-001 6.810185500143e-001 3.108500023820e-008 8.159812562527e-008 3.108500023820e-008 2.417665230044e-008 1.008916479909e-001 
2.600000000000e+000 0.000000000000e+000 0.000000000000e+000 8.844924818868e-002 5.970323885566e-001 2.258813905475e-008 5.929386501871e-008 2.258813905475e-008 1.591305020657e-008 8.844925076531e-002 
2.800000000000e+000 0.000000000000e+000 0.000000000000e+000 7.641683817818e-002 5.158136309951e-001 1.632367871808e-008 4.284965663494e-008 1.632367871808e-008 1.057760195284e-008 7.641684005240e-002 
3.000000000000e+000 0.000000000000e+000 0.000000000000e+000 6.503315461839e-002 4.389737743479e-001 1.174181496142e-008 3.082226427370e-008 1.174181496142e-008 7.129477211442e-009 6.503315597462e-002 
3.200000000000e+000 0.000000000000e+000 0.000000000000e+000 5.449358803299e-002 3.678317053008e-001 8.411347922435e-009 2.207978829638e-008 8.411347922435e-009 4.894093239841e-009 5.449358900996e-002 
3.400000000000e+000 0.000000000000e+000 0.000000000000e+000 4.494195681659e-002 3.033581985254e-001 6.002058564825e-009 1.575540373265e-008 6.002058564825e-009 3.437777851579e-009 4.494195751740e-002 
3.600000000000e+000 0.000000000000e+000 0.000000000000e+000 3.646707995360e-002 2.461527825540e-001 4.265577245751e-009 1.119714027008e-008 4.265577245751e-009 2.483199962655e-009 3.646708045415e-002 
3.800000000000e+000 0.000000000000e+000 0.000000000000e+000 2.910397739594e-002 1.964518423526e-001 3.017669576007e-009 7.921382637003e-009 3.017669576007e-009 1.853494795665e-009 2.910397775173e-002 
4.000000000000e+000 0.000000000000e+000 0.000000000000e+000 2.283903368192e-002 1.541634737700e-001 2.123136265709e-009 5.573232697471e-009 2.123136265709e-009 1.435905220688e-009 2.283903393336e-002 
4.200000000000e+000 0.000000000000e+000 0.000000000000e+000 1.761809744586e-002 1.189221552456e-001 1.483576549017e-009 3.894388441153e-009 1.483576549017e-009 1.158366196446e-009 1.761809762229e-002 
4.400000000000e+000 0.000000000000e+000 0.000000000000e+000 1.335632103337e-002 9.015516522692e-002 1.027801677491e-009 2.697979403399e-009 1.027801677491e-009 9.745151963554e-010 1.335632115605e-002 
4.600000000000e+000 0.000000000000e+000 0.000000000000e+000 9.948540451222e-003 6.715264684329e-002 7.044984030123e-010 1.849308307891e-009 7.044984030123e-010 8.541243247345e-010 9.948540535604e-003 
4.800000000000e+000 0.000000000000e+000 0.000000000000e+000 7.279155537047e-003 4.913429905894e-002 4.767110435210e-010 1.251366489227e-009 4.767110435210e-010 7.770231863522e-010 7.279155594319e-003 
5.000000000000e+000 0.000000000000e+000 0.000000000000e+000 5.230719119463e-003 3.530735351094e-002 3.177547713097e-010 8.341062746718e-010 3.177547713097e-010 7.293125221925e-010 5.230719157739e-003 
5.200000000000e+000 0.000000000000e+000 0.000000000000e+000 3.690749168550e-003 2.491255652945e-002 2.082460053223e-010 5.466457639549e-010 2.082460053223e-010 7.011189469275e-010 3.690749193692e-003 
5.400000000000e+000 0.000000000000e+000 0.000000000000e+000 2.556570526639e-003 1.725685082384e-002 1.340009702996e-010 3.517525470204e-010 1.340009702996e-010 6.853599991345e-010 2.556570542848e-003 
5.600000000000e+000 0.000000000000e+000 0.000000000000e+000 1.738245778800e-003 1.173315886086e-002 8.459257390785e-011 2.220555064919e-010 8.459257390785e-011 6.770773868734e-010 1.738245789049e-003 
5.800000000000e+000 0.000000000000e+000 0.000000000000e+000 1.159836415671e-003 7.828895715263e-003 5.237454689157e-011 1.374831855742e-010 5.237454689157e-011 6.729924085675e-010 1.159836422023e-003 
6.000000000000e+000 0.000000000000e+000 0.000000000000e+000 7.593425666339e-004 5.125562269784e-003 3.180555255719e-011 8.348957544641e-011 3.180555255719e-011 6.710995480460e-010 7.593425704932e-004 
6.200000000000e+000 0.000000000000e+000 0.000000000000e+000 4.877061317813e-004 3.292016356780e-003 1.894937551788e-011 4.974211071820e-011 1.894937551788e-011 6.702728364109e-010 4.877061340792e-004 
6.400000000000e+000 0.000000000000e+000 0.000000000000e+000 3.072432390106e-004 2.073891844226e-003 1.107975072955e-011 2.908434564884e-011 1.107975072955e-011 6.699311402703e-010 3.072432403507e-004 
6.600000000000e+000 0.000000000000e+000 0.000000000000e+000 1.898164906964e-004 1.281261301306e-003 6.359444554742e-012 1.669354193995e-011 6.359444554742e-012 6.697969646936e-010 1.898164914609e-004 
6.800000000000e+000 0.000000000000e+000 0.000000000000e+000 1.149836401509e-004 7.761395649527e-004 3.583690280152e-012 9.407186969152e-012 3.583690280152e-012 6.697467433983e-010 1.149836405766e-004 
7.000000000000e+000 0.000000000000e+000 0.000000000000e+000 6.828265366014e-005 4.609079089236e-004 1.982824614617e-012 5.204914597122e-012 1.982824614617e-012 6.697287804013e-010 6.828265389052e-005 
7.200000000000e+000 0.000000000000e+000 0.000000000000e+000 3.974449276823e-005 2.682753244714e-004 1.077104923051e-012 2.827400406761e-012 1.077104923051e-012 6.697226298502e-010 3.974449288856e-005 
7.400000000000e+000 0.000000000000e+000 0.000000000000e+000 2.267010632868e-005 1.530232168654e-004 5.743725505734e-013 1.507727929006e-012 5.743725505734e-013 6.697206115528e-010 2.267010638859e-005 
7.600000000000e+000 0.000000000000e+000 0.000000000000e+000 1.266938146498e-005 8.551832449333e-005 3.006122109094e-013 7.891070373875e-013 3.006122109094e-013 6.697199764143e-010 1.266938149274e-005 
7.800000000000e+000 0.000000000000e+000 0.000000000000e+000 6.935769668145e-006 4.681644509835e-005 1.543805558132e-013 4.052489427600e-013 1.543805558132e-013 6.697197846878e-010 6.935769679510e-006 
8.000000000000e+000 0.000000000000e+000 0.000000000000e+000 3.718604395218e-006 2.510057961837e-005 7.777384203729e-014 2.041563190980e-013 7.777384203729e-014 6.697197291702e-010 3.718604398701e-006 
8.200000000000e+000 0.000000000000e+000 0.000000000000e+000 1.952162820074e-006 1.317709903508e-005 3.842390230570e-014 1.008627273025e-013 3.842390230570e-014 6.697197137516e-010 1.952162820118e-006 
8.400000000000e+000 0.000000000000e+000 0.000000000000e+000 1.003235946951e-006 6.771842659024e-006 1.861062733807e-014 4.885288051248e-014 1.861062733807e-014 6.697197096459e-010 1.003235945762e-006 
8.600000000000e+000 0.000000000000e+000 0.000000000000e+000 5.045874191657e-007 3.405965099585e-006 8.834275921281e-015 2.318995804338e-014 8.834275921281e-015 6.697197085980e-010 5.045874177550e-007 
8.800000000000e+000 0.000000000000e+000 0.000000000000e+000 2.483167987217e-007 1.676138408982e-006 4.108516273201e-015 1.078483896716e-014 4.108516273201e-015 6.697197083418e-010 2.483167974915e-007 
9.000000000000e+000 0.000000000000e+000 0.000000000000e+000 1.195360548672e-007 8.068683837818e-007 1.871343557510e-015 4.912260588467e-015 1.871343557510e-015 6.697197082818e-010 1.195360539286e-007 
9.200000000000e+000 0.000000000000e+000 0.000000000000e+000 5.627579265391e-008 3.798616098417e-007 8.345261852438e-016 2.190614986267e-015 8.345261852438e-016 6.697197082684e-010 5.627579199479e-008 
9.400000000000e+000 0.000000000000e+000 0.000000000000e+000 2.591932665486e-008 1.749554612525e-007 3.644131687684e-016 9.565683180181e-016 3.644131687684e-016 6.697197082655e-010 2.591932621213e-008 
9.600000000000e+000 0.000000000000e+000 0.000000000000e+000 1.174449027159e-008 7.927531349866e-008 1.565392812025e-016 4.108993631570e-016 1.565392812025e-016 6.697197082649e-010 1.174448998027e-008 
9.800000000000e+000 0.000000000000e+000 0.000000000000e+000 5.509713058509e-009 3.719056599777e-008 6.943762673799e-017 1.822575201875e-016 6.943762673799e-017 6.697197082648e-010 5.509712859072e-009 
1.000000000000e+001 0.000000000000e+000 0.000000000000e+000 3.715788617480e-009 2.508157559961e-008 4.512799876379e-017 1.184447467551e-016 4.512799876379e-017 6.697197082648e-010 3.715788447410e-009 
1  2  2  1
2  3  3  2
3  4  4  3
4  5  5  4
5  6  6  5
6  7  7  6
7  8  8  7
8  9  9  8
9  10  10  9
10  11  11  10
11  12  12  11
12  13  13  12
13  14  14  13
14  15  15  14
15  16  16  15
16  17  17  16
17  18  18  17
18  19  19  18
19  20  20  19
20  21  21  20
21  22  22  21
22  23  23  22
23  24  24  23
24  25  25  24
25  26  26  25
26  27  27  26
27  28  28  27
28  29  29  28
29  30  30  29
30  31  31  30
31  32  32  31
32  33  33  32
33  34  34  33
34  35  35  34
35  36  36  35
36  37  37  36
37  38  38  37
38  39  39  38
39  40  40  39
40  41  41  40
41  42  42  41
42  43  43  42
43  44  44  43
44  45  45  44
45  46  46  45
46  47  47  46
47  48  48  47
48  49  49  48
49  50  50  49
50  51  51  50
VARIABLES  = "X","Y","Z", "Comp_A", "Comp_B", "Comp_C", "Comp_D", "Comp_E", "Biomass", "ConsTracer"
ZONE T="6.912000000000e+005s", N=51, E=50, F=FEPOINT, ET=QUADRILATERAL
0.000000000000e+000 0.000000000000e+000 0.000000000000e+000 2.000000000000e-001 1.350000000000e+000 4.880464815508e-004 1.281122014071e-003 4.880464815508e-004 1.000000000000e-009 2.000000000000e-001 
2.000000000000e-001 0.000000000000e+000 0.000000000000e+000 1.995611134981e-001 1.346666945463e+000 5.417849495536e-004 1.422185492578e-003 5.417849495536e-004 2.538443889171e-003 1.995871183258e-001 
4.000000000000e-001 0.000000000000e+000 0.000000000000e+000 1.989633239140e-001 1.342438676473e+000 5.447066717277e-004 1.429855013285e-003 5.447066717277e-004 2.000811662283e-003 1.990028857739e-001 
6.000000000000e-001 0.000000000000e+000 0.000000000000e+000 1.981653759713e-001 1.337004726829e+000 4.993693454539e-004 1.310844531816e-003 4.993693454539e-004 1.476456766774e-003 1.982082925011e-001 
8.000000000000e-001 0.000000000000e+000 0.000000000000e+000 1.971203692766e-001 1.329986005838e+000 4.303255401381e-004 1.129604542862e-003 4.303255401381e-004 1.044594090030e-003 1.971608246183e-001 
1.000000000000e+000 0.000000000000e+000 0.000000000000e+000 1.957801222024e-001 1.321014075747e+000 3.546214727467e-004 9.308813659600e-004 3.546214727467e-004 7.153692938875e-004 1.958153328192e-001 
1.200000000000e+000 0.000000000000e+000 0.000000000000e+000 1.940961173836e-001 1.309734386590e+000 2.825134653813e-004 7.415978466259e-004 2.825134653813e-004 4.773419710248e-004 1.941251984819e-001 
1.400000000000e+000 0.000000000000e+000 0.000000000000e+000 1.920206450722e-001 1.295809631850e+000 2.191971443086e-004 5.753925038102e-004 2.191971443086e-004 3.118437941609e-004 1.920437834408e-001 
1.600000000000e+000 0.000000000000e+000 0.000000000000e+000 1.895082258510e-001 1.278925420024e+000 1.665217037229e-004 4.371194722726e-004 1.665217037229e-004 2.001938012287e-004 1.895261278717e-001 
1.800000000000e+000 0.000000000000e+000 0.000000000000e+000 1.865172845717e-001 1.258798529762e+000 1.243621920992e-004 3.264507542605e-004 1.243621920992e-004 1.266598018255e-004 1.865308382785e-001 
2.000000000000e+000 0.000000000000e+000 0.000000000000e+000 1.830119987778e-001 1.235187252184e+000 9.158743830224e-005 2.404170255434e-004 9.158743830224e-005 7.916672594599e-005 1.830220857049e-001 
2.200000000000e+000 0.000000000000e+000 0.000000000000e+000 1.789642120377e-001 1.207902923700e+000 6.667796754576e-005 1.750296648076e-004 6.667796754576e-005 4.898261792447e-005 1.789716160165e-001 
2.400000000000e+000 0.000000000000e+000 0.000000000000e+000 1.743552868573e-001 1.176821605217e+000 4.808286409609e-005 1.262175182522e-004 4.808286409609e-005 3.005387758427e-005 1.743606609128e-001 
2.600000000000e+000 0.000000000000e+000 0.000000000000e+000 1.691777668053e-001 1.141894847985e+000 3.440057992035e-005 9.030152229091e-005 3.440057992035e-005 1.831464569941e-005 1.691816318800e-001 
2.800000000000e+000 0.000000000000e+000 0.000000000000e+000 1.634367225666e-001 1.103158561599e+000 2.445077233584e-005 6.418327738157e-005 2.445077233584e-005 1.110086723972e-005 1.634394815329e-001 
3.000000000000e+000 0.000000000000e+000 0.000000000000e+000 1.571506698694e-001 1.060739130310e+000 1.728453999770e-005 4.537191749397e-005 1.728453999770e-005 6.701250036458e-006 1.571526271360e-001 
3.200000000000e+000 0.000000000000e+000 0.000000000000e+000 1.503519701763e-001 1.014856112337e+000 1.216383150629e-005 3.193005770402e-005 1.216383150629e-005 4.034128110537e-006 1.503533516700e-001 
3.400000000000e+000 0.000000000000e+000 0.000000000000e+000 1.430866527218e-001 9.658210684777e-001 8.528553576657e-006 2.238745313872e-005 8.528553576657e-006 2.424821523535e-006 1.430876237743e-001 
3.600000000000e+000 0.000000000000e+000 0.000000000000e+000 1.354136335262e-001 9.140323330321e-001 5.961634262623e-006 1.564928993939e-005 5.961634262623e-006 1.457086284764e-006 1.354143137724e-001 
3.800000000000e+000 0.000000000000e+000 0.000000000000e+000 1.274033414474e-001 8.599657831100e-001 4.157088165343e-006 1.091235643403e-005 4.157088165343e-006 8.764219126062e-007 1.274038166749e-001 
4.000000000000e+000 0.000000000000e+000 0.000000000000e+000 1.191358043707e-001 8.041619592158e-001 2.893076551404e-006 7.594325947435e-006 2.893076551404e-006 5.283577375677e-007 1.191361356457e-001 
4.200000000000e+000 0.000000000000e+000 0.000000000000e+000 1.106982780732e-001 7.472100922959e-001 2.010296502370e-006 5.277028318721e-006 2.010296502370e-006 3.196838236049e-007 1.106985086056e-001 
4.400000000000e+000 0.000000000000e+000 0.000000000000e+000 1.021825381864e-001 6.897298500284e-001 1.395235537460e-006 3.662493285834e-006 1.395235537460e-006 1.944093865764e-007 1.021826984029e-001 
4.600000000000e+000 0.000000000000e+000 0.000000000000e+000 9.368196894249e-002 6.323517054604e-001 9.675181648255e-007 2.539735182667e-006 9.675181648255e-007 1.190112644901e-007 9.368208018396e-002 
4.800000000000e+000 0.000000000000e+000 0.000000000000e+000 8.528860452085e-002 5.756969808041e-001 6.705246003291e-007 1.760127075864e-006 6.705246003291e-007 7.346084225601e-008 8.528868170775e-002 
5.000000000000e+000 0.000000000000e+000 0.000000000000e+000 7.709027056796e-002 5.203585635318e-001 4.645365275568e-007 1.219408384837e-006 4.645365275568e-007 4.580400654841e-008 7.709032410511e-002 
5.200000000000e+000 0.000000000000e+000 0.000000000000e+000 6.916797356741e-002 4.668832925033e-001 3.217868642341e-007 8.446905186144e-007 3.217868642341e-007 2.890545189223e-008 6.916801069578e-002 
5.400000000000e+000 0.000000000000e+000 0.000000000000e+000 6.159365897039e-002 4.157568310145e-001 2.229172563238e-007 5.851577978501e-007 2.229172563238e-007 1.850137002806e-008 6.159368472108e-002 
5.600000000000e+000 0.000000000000e+000 0.000000000000e+000 5.442843787993e-002 3.673917009599e-001 1.544616769603e-007 4.054619020207e-007 1.544616769603e-007 1.203829813393e-008 5.442845574431e-002 
5.800000000000e+000 0.000000000000e+000 0.000000000000e+000 4.772134603422e-002 3.221189088347e-001 1.070695128391e-007 2.810574712026e-007 1.070695128391e-007 7.982098141737e-009 4.772135843294e-002 
6.000000000000e+000 0.000000000000e+000 0.000000000000e+000 4.150866494337e-002 2.801833654278e-001 7.425686812628e-008 1.949242788315e-007 7.425686812628e-008 5.407094667992e-009 4.150867355371e-002 
6.200000000000e+000 0.000000000000e+000 0.000000000000e+000 3.581380020422e-002 2.417430658632e-001 5.153248713759e-008 1.352727787362e-007 5.153248713759e-008 3.751763733948e-009 3.581380618792e-002 
6.400000000000e+000 0.000000000000e+000 0.000000000000e+000 3.064767869077e-002 2.068717716275e-001 3.578783397056e-008 9.394306417272e-008 3.578783397056e-008 2.673300061862e-009 3.064768285242e-002 
6.600000000000e+000 0.000000000000e+000 0.000000000000e+000 2.600960013701e-002 1.755647594448e-001 2.487258173746e-008 6.529052706081e-008 2.487258173746e-008 1.960866523627e-009 2.600960303387e-002 
6.800000000000e+000 0.000000000000e+000 0.000000000000e+000 2.188845843213e-002 1.477470655013e-001 1.729975165733e-008 4.541184810047e-008 1.729975165733e-008 1.483690577696e-009 2.188846045029e-002 
7.000000000000e+000 0.000000000000e+000 0.000000000000e+000 1.826423347582e-002 1.232835558027e-001 1.204123428950e-008 3.160824000991e-008 1.204123428950e-008 1.159884613847e-009 1.826423488290e-002 
7.200000000000e+000 0.000000000000e+000 0.000000000000e+000 1.510965348557e-002 1.019901469809e-001 8.386171264469e-009 2.201369956921e-008 8.386171264469e-009 9.376208465316e-010 1.510965446726e-002 