 TITLE = "Time curves in points"
 VARIABLES = "TIME "  "PRESSURE1" 
 ZONE T="POINT=POINT0"
0	6200000
86400	6472446.19500000
172800	6625132.66900000
259200	6652521.45500000
345600	6885408.74600000
432000	6946451.18100000
518400	6910254.41300000
604800	6851302.63100000
691200	6845887.56200000
777600	6865435.19500000
864000	6995961.38300000
950400	7092993.30500000
1036800	7004178.83900000
1123200	6724387.14500000
1209600	6542359.72100000
1296000	6423271.49000000
1382400	6341424.08800000
1468800	6403154.04500000
1555200	6829602.35000000
1641600	7185673.43200000
1728000	7263863.21100000
1814400	7301981.54400000
1900800	7354991.76000000
1987200	7317180.43200000
2073600	7339716.26500000
2160000	7430124.78300000
2246400	7149917.42500000
2332800	7002259.23600000
2419200	6887348.24700000
2505600	6791463.36100000
2592000	6711497.52000000
2678400	6646382.65400000
2764800	6590999.27800000
2851200	6544950.61500000
2937600	6503143.23600000
3024000	6464164.80400000
3110400	6429825.48000000
3196800	6403068.76000000
3283200	6380196.80800000
3369600	6585571.21400000
3456000	6863097.90700000
3542400	6877662.02600000
3628800	6971373.55700000
3715200	7061726.77400000
3801600	7103250.29400000
3888000	7150511.63500000
3974400	7187716.86600000
4060800	7232557.02500000
4147200	7270652.07700000
4233600	7303550.30800000
4320000	7306853.48200000
4406400	7331116.28100000
4492800	7350300.26100000
4579200	7372273.81300000
4665600	7380413.89900000
4752000	7385616.78400000
4838400	7388357.93300000
4924800	7414539.11700000
5011200	7420306.85400000
5097600	7434890.86200000
5184000	7440462.31000000
5270400	7451321.16900000
5356800	7451446.78800000
5443200	7373156.89600000
5529600	7292460.26700000
5616000	7226251.32300000
5702400	7172170.41300000
5788800	6946346.71800000
5875200	6906528.18800000
5961600	6846335.53000000
6048000	6813821.61700000
6134400	6776625.23200000
6220800	6749941.27300000
6307200	6717907.82500000
6393600	6666900.65700000
6480000	6657158.30500000
6566400	6631530.57600000
6652800	6606694.04900000
6739200	6582105.79800000
6825600	6615628.48100000
6912000	6793044.99600000
6998400	6756948.82000000
7084800	6610085.22600000
7171200	6589778.70300000
7257600	6571205.45800000
7344000	6553414.05500000
7430400	6537074.69500000
7516800	6521194.30900000
7603200	6507178.81500000
7689600	6492975.81400000
7776000	6480132.76200000
7862400	6467966.10700000
7948800	6456157.79900000
8035200	6503027.50700000
8121600	6780505.02600000
8208000	6839261.30000000
8294400	6880464.29200000
8380800	6925450.52200000
8467200	6931112.50600000
8553600	7002779.59000000
8640000	7068643.59700000
8726400	7112540.04300000
8812800	7142005.31000000
8899200	7172128.46200000
8985600	7193485.26600000
9072000	7186886.41500000
9158400	7222158.11100000
9244800	7245629.84900000
9331200	7235383.51700000
9417600	7270486.37800000
9504000	7293786.19700000
9590400	7304041.55000000
9676800	7316277.04600000
9763200	7329318.47700000
9849600	7342758.74400000
9936000	7352686.01400000
10022400	7351179.56300000
10108800	7368055.40400000
10195200	7382911.60900000
10281600	7393134.94800000
10368000	7404544.36000000
10454400	7407095.76900000
10540800	7416228.44600000
10627200	7423794.30000000
10713600	7426174.76500000
10800000	7433757.93800000
10886400	7403695.38400000
10972800	7416193.94800000
11059200	7428982.59000000
11145600	7439314.15300000
11232000	7444588.00400000
11318400	7448968.70500000
11404800	7446489.06300000
11491200	7444367.22500000
11577600	7424488.78500000
11664000	7446214.97300000
11750400	7448505.75600000
11836800	7450941.92500000
11923200	7454929.44300000
12009600	7441611.21300000
12096000	7451185.60300000
12182400	7452567.46800000
12268800	7454524.96300000
12355200	7426460.37700000
12441600	7455569.16800000
12528000	7462822.35200000
12614400	7462872.79300000
12700800	7464118.96600000
12787200	7464660.60800000
12873600	7469485.87100000
12960000	7456809.09900000
13046400	7459487.20200000
13132800	7464629.75200000
13219200	7461301.84900000
13305600	7474186.75900000
13392000	7476836.23600000
13478400	7466718.90800000
13564800	7479939.57700000
13651200	7489507.21400000
13737600	7488024.84500000
13824000	7490123.50700000
13910400	7486858.25100000
13996800	7486223.61300000
14083200	7488555.46500000
14169600	7490648.46700000
14256000	7490734.75600000
14342400	7489922.14600000
14428800	7490712.93100000
14515200	7498751.21900000
14601600	7519293.82300000
14688000	7532699.81500000
14774400	7506403.30900000
14860800	7508033.79200000
14947200	7370312.54000000
15033600	7342492.27700000
15120000	7316589.88600000
15206400	7278705.47300000
15292800	7435445.68600000
15379200	7451292.07800000
15465600	7463393.38900000
15552000	7478891.61200000
15638400	7489607.29200000
15724800	7500123.21500000
15811200	7506388.24300000
15897600	7518563.26600000
15984000	7526598.72600000
16070400	7536040.15800000
16156800	7546704.89500000
16243200	7551976.04100000
16329600	7561864.62000000
16416000	7572280.04000000
16502400	7580726.30400000
16588800	7587639.71200000
16675200	7596035.27800000
16761600	7546296.66200000
16848000	7589642.94900000
16934400	7594069.41900000
17020800	7595379.81400000
17107200	7602516.72500000
17193600	7606698.99300000
17280000	7610172.28900000
17366400	7610854.73400000
17452800	7618862.96900000
17539200	7617977.85100000
17625600	7622396.20500000
17712000	7623243.00400000
17798400	7617382.63900000
17884800	7584070.83200000
17971200	7571780.30000000
18057600	7561023.24600000
18144000	7551689.39500000
18230400	7540211.28500000
18316800	7537728.63600000
18403200	7538768.04700000
18489600	7548593.43300000
18576000	7581938.02000000
18662400	7588145.14400000
18748800	7594400.30600000
18835200	7599399.03500000
18921600	7599530.28700000
19008000	7611340.32000000
19094400	7617637.33800000
19180800	7616904.79400000
19267200	7626638.36100000
19353600	7617810.18100000
19440000	7631767.13700000
19526400	7632595.10000000
19612800	7634797
19699200	7638397.80400000
19785600	7644869.30900000
19872000	7643885.97200000
19958400	7650605.87500000
20044800	7653441.82900000
20131200	7659398.70100000
20217600	7662754.90800000
20304000	7666637.77700000
20390400	7666313.43700000
20476800	7672000.42500000
20563200	7676012.14700000
20649600	7678120.08200000
20736000	7677119.09600000
20822400	7679326.78700000
20908800	7656823.78300000
20995200	7654942.99000000
21081600	7675547.15000000
21168000	7680146.95800000
21254400	7682662.68800000
21340800	7684006.91100000
21427200	7683943.15300000
21513600	7686705.52900000
21600000	7685809.63600000
21686400	7686021.80500000
21772800	7682445.77000000
21859200	7655818.75400000
21945600	7696609.51000000
22032000	7699241.20300000
22118400	7709725.22200000
22204800	7715758.59900000
22291200	7719286.19400000
22377600	7723010.06600000
22464000	7725072.63300000
22550400	7726777.27700000
22636800	7731156.59800000
22723200	7734914.88200000
22809600	7737935.59900000
22896000	7739367.89400000
22982400	7740752.50000000
23068800	7743317.23200000
23155200	7745812.08300000
23241600	7720899.69700000
23328000	7735297.09400000
23414400	7742805.39000000
23500800	7749847.19800000
23587200	7751951.29200000
23673600	7756645.44400000
23760000	7761046.59300000
23846400	7760484.80500000
23932800	7759993.83300000
24019200	7763531.31100000
24105600	7764518.68100000
24192000	7764913.61800000
24278400	7767743.91700000
24364800	7764897.75900000
24451200	7765736.08400000
24537600	7767136.34100000
24624000	7767505.31800000
24710400	7768577.09200000
24796800	7765704.29900000
24883200	7766838.37600000
24969600	7759106.40600000
25056000	7762790.15500000
25142400	7765831.07500000
25228800	7766447.39200000
25315200	7767900.47000000
25401600	7767377.88100000
25488000	7765807.71200000
25574400	7770266.15900000
25660800	7735716.37000000
25747200	7768364.26500000
25833600	7770385.69900000
25920000	7760497.81800000
26006400	7775098.51200000
26092800	7777985.31700000
26179200	7773722.57000000
26265600	7770544.21500000
26352000	7769388.62700000
26438400	7780947.97100000
26524800	7783310.34400000
26611200	7775537.05000000
26697600	7781224.90400000
26784000	7778930.41900000
26870400	7787587.87100000
26956800	7793028.17600000
27043200	7789162.05600000
27129600	7794986.29400000
27216000	7795489.60800000
27302400	7794167.11700000
27388800	7793863.24100000
27475200	7797983.88300000
27561600	7787480.18300000
27648000	7795808.90900000
27734400	7765096.58900000
27820800	7773938.26600000
27907200	7785580.72400000
27993600	7798270.66600000
28080000	7802920.67900000
28166400	7804443.23000000
28252800	7804754.25500000
28339200	7806320.77200000
28425600	7786123.95300000
28512000	7757743.48700000
28598400	7789350.67300000
28684800	7789631.57700000
28771200	7790727.25000000
28857600	7796223.82000000
28944000	7798062.36200000
29030400	7799862.46600000
29116800	7799255.30600000
29203200	7805092.82100000
29289600	7807312.15700000
29376000	7807574.97500000
29462400	7803420.45800000
29548800	7792946.48700000
29635200	7802253.64900000
29721600	7809390.28000000
29808000	7810158.53800000
29894400	7812243.43800000
29980800	7813311.45300000
30067200	7813585.00700000
30153600	7815398.75700000
30240000	7815647.83800000
30326400	7815780.05000000
30412800	7818075.97800000
30499200	7818011.29600000
30585600	7819814.42200000
30672000	7821300.61700000
30758400	7822289.29100000
30844800	7821741.88000000
30931200	7822176.60400000
31017600	7819407.41400000
31104000	7822871.58000000
31190400	7823926.80800000
31276800	7824382.60400000
31363200	7825483.81200000
31449600	7823824.94700000
31536000	7799783.22200000
31622400	7793585.59400000
31708800	7773623.74300000
31795200	7807172.62900000
31881600	7814303.34900000
31968000	7813907.68100000
32054400	7800856.29500000
32140800	7612807.81000000
32227200	7595910.08100000
32313600	7582954.50800000
32400000	7571905.58800000
32486400	7561842.89600000
32572800	7552260.16800000
32659200	7549875.36500000
32745600	7544718.22500000
32832000	7545939.25000000
32918400	7534857.79800000
33004800	7515872.46300000
33091200	7504214.56400000
33177600	7494182.13500000
33264000	7490561.47300000
33350400	7697190.81800000
33436800	7714463.54000000
33523200	7720252.17300000
33609600	7724354.35100000
33696000	7717499.89100000
33782400	7724804.52500000
33868800	7709052.28600000
33955200	7687703.55500000
34041600	7725563.68500000
34128000	7730101.86800000
34214400	7452919.22900000
34300800	7439689.67100000
34387200	7426430.66400000
34473600	7413188.12300000
34560000	7399945.40800000
34646400	7386702.68900000
34732800	7373460.03000000
34819200	7360217.21200000
34905600	7346974.19100000
34992000	7333730.95000000
35078400	7320487.49400000
35164800	7307243.85300000
35251200	7623161.45900000
35337600	7633091.62700000
35424000	7642296.44100000
35510400	7647752.06000000
35596800	7653946.13700000
35683200	7660236.01300000
35769600	7664596.34700000
35856000	7652424.96500000
35942400	7602053.90100000
36028800	7604540.30900000
36115200	7610855.31200000
36201600	7617110.57800000
36288000	7643818.46200000
36374400	7646268.67800000
36460800	7647643.89100000
36547200	7637451.40200000
36633600	7660318.45000000
36720000	7665434.09000000
36806400	7665874.64800000
36892800	7664171.83300000
36979200	7675733.38000000
37065600	7678473.42400000
37152000	7683284.30700000
37238400	7668760.27400000
37324800	7641554.32200000
37411200	7643296.05400000
37497600	7666392.28900000
37584000	7674184.12700000
37670400	7675526.63100000
37756800	7681542.18800000
37843200	7685036.37600000
37929600	7691944.84500000
38016000	7693305.64300000
38102400	7691621.24900000
38188800	7696089.92600000
38275200	7695567.81700000
38361600	7698736.01800000
38448000	7703514.50600000
38534400	7704310.86800000
38620800	7703845.07400000
38707200	7689981.34400000
38793600	7681534.58800000
38880000	7686244.43800000
38966400	7683624.63900000
39052800	7700603.12100000
39139200	7702680.92800000
39225600	7705957.68700000
39312000	7708427.23600000
39398400	7709505.17900000
39484800	7711290.44900000
39571200	7712357.38200000
39657600	7713441.71700000
39744000	7716244.26700000
39830400	7719266.81700000
39916800	7717813.30900000
40003200	7721101.42500000
40089600	7720298.69700000
40176000	7723642.20900000
40262400	7720700.92800000
40348800	7718543.41800000
40435200	7726286.14500000
40521600	7727687.28100000
40608000	7730457.50500000
40694400	7728056.91500000
40780800	7715235.51200000
40867200	7729240.99500000
40953600	7725749.86900000
41040000	7701909.49800000
41126400	7717974.80900000
41212800	7729338.29000000
41299200	7730110.51300000
41385600	7733269.01600000
41472000	7733093.35600000
41558400	7738012.25900000
41644800	7737970.82600000
41731200	7741611.97100000
41817600	7740271.53700000
41904000	7745508.38800000
41990400	7745472.41600000
42076800	7746056.51800000
42163200	7744783.65300000
42249600	7747035.18500000
42336000	7747254.83500000
42422400	7745369.34600000
42508800	7723140.97600000
42595200	7707540.55300000
42681600	7695754.42600000
42768000	7690023.20200000
42854400	7683618.83200000
42940800	7696357.04000000
43027200	7720203.41000000
43113600	7728515.44600000
43200000	7722844.12900000
43286400	7734103.53400000
43372800	7736092.29500000
43459200	7740217.23800000
43545600	7740130.07400000
43632000	7738241.04100000
43718400	7741615.82100000
43804800	7741062.33300000
43891200	7746261.36900000
43977600	7746032.67000000
44064000	7742576.97000000
44150400	7733093.35600000
44236800	7687455.10300000
44323200	7684882.33400000
44409600	7688254.29900000
44496000	7689641.43300000
44582400	7703134.21700000
44668800	7714043.17100000
44755200	7725031.12500000
44841600	7727721.59300000
44928000	7727982.86600000
45014400	7725625.25400000
45100800	7736067.09400000
45187200	7736457.38100000
45273600	7735897.19900000
45360000	7728137.86400000
45446400	7681579.83300000
45532800	7676081.95700000
45619200	7708417.83500000
45705600	7840557.63800000
45792000	7923344.59500000
45878400	7918606.70000000
45964800	7908648.27300000
46051200	7904126.06900000
46137600	7661597.59700000
46224000	7663975.02900000
46310400	7887356.63800000
46396800	7871843.73900000
46483200	7862452.09800000
46569600	7850820.24800000
46656000	7836398.46900000
46742400	7770426.62500000
46828800	7606250.21100000
46915200	7614278.09600000
47001600	7619523.65500000
47088000	7625487.07100000
47174400	7630001.06000000
47260800	7631115.37100000
47347200	7632068.38100000
47433600	7634674.08000000
47520000	7622392.92400000
47606400	7623785.19200000
47692800	7630787.09600000
47779200	7632817.22800000
47865600	7635012.10800000
47952000	7636515.88700000
48038400	7638351.15600000
48124800	7633218.20400000
48211200	7634101.23100000
48297600	7635248.11900000
48384000	7634291.07800000
48470400	7635075.75700000
48556800	7626531.55700000
48643200	7638482.91100000
48729600	7639386.12800000
48816000	7639856.55200000
48902400	7639377.68800000
48988800	7627727.72500000
49075200	7653682.92300000
49161600	7658487.36800000
49248000	7664019.68100000
49334400	7665125.96100000
49420800	7668118.90700000
49507200	7670211.04000000
49593600	7672372.40500000
49680000	7672170.98100000
49766400	7676228.06200000
49852800	7683859.47000000
49939200	7686301.69200000
50025600	7689186.60000000
50112000	7688973.64700000
50198400	7692308.17500000
50284800	7693909.25100000
50371200	7693909.25100000
50457600	7698149.27300000
50544000	7696799.21800000
50630400	7698811.30400000
50716800	7701602.82500000
50803200	7702102.28000000
50889600	7703314.14600000
50976000	7699837.13100000
51062400	7704906.21200000
51148800	7706437.59800000
51235200	7709568.05500000
51321600	7709513.53000000
51408000	7711564.63700000
51494400	7711656.77600000
51580800	7713858.70800000
51667200	7713393.40900000
51753600	7716167.74800000
51840000	7717147.06800000
51926400	7715998.91900000
52012800	7718918.90500000
52099200	7719537.69100000
52185600	7721101.78400000
52272000	7716792.47900000
52358400	7690884.89800000
52444800	7712331.43200000
52531200	7715700.34500000
52617600	7718241.30200000
52704000	7719219.43300000
52790400	7719082.20200000
52876800	7717747.78000000
52963200	7722926.16300000
53049600	7722566.85300000
53136000	7723798.66600000
53222400	7724926.88100000
53308800	7725692.67000000
53395200	7729596.29600000
53481600	7729864.59900000
53568000	7731867.32700000
53654400	7712093.58300000
53740800	7707587.87300000
53827200	7725938.73000000
53913600	7725589.46600000
54000000	7728933.38000000
54086400	7732138.03800000
54172800	7732951.96900000
54259200	7735003.91100000
54345600	7735850.67100000
54432000	7735445.93500000
54518400	7736437.08500000
54604800	7736670.97700000
54691200	7739739.12900000
54777600	7740258.91400000
54864000	7741132.42900000
54950400	7740075.43400000
55036800	7699157.40100000
55123200	7678226.66600000
55209600	7692915.33300000
55296000	7683063.21800000
55382400	7679112.33000000
55468800	7677288.00500000
55555200	7675023.57500000
55641600	7672521.84500000
55728000	7669815.70300000
55814400	7666792.76500000
55900800	7666475.92600000
55987200	7664278.99200000
56073600	7662378.23100000
56160000	7660203.28100000
56246400	7659708.68000000
56332800	7655952.45000000
56419200	7654034.72900000
56505600	7652714.14000000
56592000	7651271.88900000
56678400	7649989.54000000
56764800	7648977.14900000
56851200	7646658.81200000
56937600	7644261.92900000
57024000	7639783.20100000
57110400	7641465.01100000
57196800	7639218.31900000
57283200	7636254.60700000
57369600	7635052.28000000
57456000	7633168.91800000
57542400	7631320.36300000
57628800	7631369.26200000
57715200	7629012.00500000
57801600	7626573.78200000
57888000	7625159.76300000
57974400	7624496.19500000
58060800	7621292.03200000
58147200	7619688.92500000
58233600	7618833.12000000
58320000	7617261.02500000
58406400	7616269.06800000
58492800	7615475.08300000
58579200	7612377.50200000
58665600	7612516.08100000
58752000	7612048.69400000
58838400	7609198.70000000
58924800	7609948.71300000
59011200	7607417.49400000
59097600	7604759.89900000
59184000	7604670.97100000
59270400	7603129.72100000
59356800	7602439.27800000
59443200	7600076.19100000
59529600	7598995.66700000
59616000	7599091.83600000
59702400	7598504.82500000
59788800	7596278.33500000
59875200	7594583.01400000
59961600	7593027.82900000
60048000	7590945.17200000
60134400	7587705.46100000
60220800	7586926.72000000
60307200	7586002.44300000
60393600	7586201.93700000
60480000	7583764.07600000
60566400	7572520.89400000
60652800	6877013.58000000
60739200	7552014.26500000
60825600	6189996.20000000
60912000	7566585.18400000
60998400	7568092.88400000
61084800	7565841.84200000
61171200	7567861.91700000
61257600	7566177.68800000
61344000	7555508.20500000
61430400	7544290.68000000
61516800	7558358.44600000
61603200	7558972.12200000
61689600	7559512.69700000
61776000	7556635.79100000
61862400	7557545.06700000
61948800	7556302.96600000
62035200	7555386.51100000
62121600	7556376.27900000
62208000	7553663.11100000
62294400	7551842.34100000
62380800	7552326.85800000
62467200	7550418.93100000
62553600	7533989.49900000
62640000	7518423.40100000
62726400	7523036.15800000
62812800	7521090.07000000
62899200	7532273.49000000
62985600	7533171.74000000
63072000	7533510.44200000
63158400	7533604.04400000
63244800	7534514.66100000
63331200	7532708.40300000
63417600	7533019.88600000
63504000	7532206.13000000
63590400	7191525.54500000
63676800	7530673.78800000
63763200	7391920.57300000
63849600	7527470.94400000
63936000	7526821.34200000
64022400	7524894.85600000
64108800	7525548.41100000
64195200	7525896.82500000
64281600	7524549.65700000
64368000	7524296.08000000
64454400	7516838.24400000
64540800	7508771.23100000
64627200	7505213.44100000
64713600	7502002.35900000
64800000	7500125.07700000
64886400	7499065.26300000
64972800	7494613.76800000
65059200	7492849.25600000
65145600	7491037.35100000
65232000	7489249.48700000
65318400	7487410.31200000
65404800	7485183.47200000
65491200	7483556.26100000
65577600	7484021.22500000
65664000	7484094.62500000
65750400	7484252.61300000
65836800	7481901.74400000
65923200	7480137.63800000
66009600	7480052.73600000
66096000	7472819.85600000
66182400	7481264.07000000
66268800	7485949.32800000
66355200	7485103.67700000
66441600	7484271.85500000
66528000	7484646.03800000
66614400	7485231.40500000
66700800	7484724.88600000
66787200	7483982.11800000
66873600	7483453.76500000
66960000	7483700.19700000
67046400	7483392.47400000
67132800	7482538.62100000
67219200	7480928.99800000
67305600	7479873.62600000
67392000	7479854.12800000
67478400	7478094.40400000
67564800	7479869.35000000
67651200	7479892.65700000
67737600	7477927.18500000
67824000	7476388.31600000
67910400	7476291.72200000
67996800	7476527.18400000
68083200	7475889.66100000
68169600	7473896.57400000
68256000	7472846.20700000
68342400	7448349.43900000
68428800	7433318.16300000
68515200	6750605.11100000
68601600	7421158.64400000
68688000	7415949.01500000
68774400	7409740.93500000
68860800	7403983.51700000
68947200	7413430.02000000
69033600	7441405.85600000


