 TITLE = "Time curves in points"
 VARIABLES = "TIME "  "TCE" 
 ZONE T="POINT=POINT6"
0.000000000000e+000 1.000000000000e-010 
4.320000000000e+004 1.000000000000e-010 
8.640000000000e+004 1.000000000000e-010 
1.296000000000e+005 1.000000000000e-010 
1.728000000000e+005 1.000000000000e-010 
2.160000000000e+005 1.000000000000e-010 
2.592000000000e+005 1.000000000000e-010 
3.024000000000e+005 1.000000000000e-010 
3.456000000000e+005 1.000000000000e-010 
3.888000000000e+005 1.000000000000e-010 
4.320000000000e+005 1.000000000000e-010 
4.752000000000e+005 1.000000000000e-010 
5.184000000000e+005 1.000000000000e-010 
5.616000000000e+005 1.000000000000e-010 
6.048000000000e+005 1.000000000000e-010 
6.480000000000e+005 1.000000000000e-010 
6.912000000000e+005 1.000000000000e-010 
7.344000000000e+005 1.000000000000e-010 
7.776000000000e+005 1.000000000000e-010 
8.208000000000e+005 1.000000000000e-010 
8.640000000000e+005 1.000000000000e-010 
9.072000000000e+005 1.000000000000e-010 
9.504000000000e+005 1.000000000000e-010 
9.936000000000e+005 1.000000000000e-010 
1.036800000000e+006 1.000000000000e-010 
1.080000000000e+006 1.000000000000e-010 
1.123200000000e+006 1.000000000000e-010 
1.166400000000e+006 1.000000000000e-010 
1.209600000000e+006 1.000000000000e-010 
1.252800000000e+006 1.000000000000e-010 
1.296000000000e+006 1.000000000001e-010 
1.339200000000e+006 1.000000000002e-010 
1.382400000000e+006 1.000000000008e-010 
1.425600000000e+006 1.000000000028e-010 
1.468800000000e+006 1.000000000098e-010 
1.512000000000e+006 1.000000000330e-010 
1.555200000000e+006 1.000000001079e-010 
1.598400000000e+006 1.000000003425e-010 
1.641600000000e+006 1.000000010565e-010 
1.684800000000e+006 1.000000031697e-010 
1.728000000000e+006 1.000000092571e-010 
1.771200000000e+006 1.000000263373e-010 
1.814400000000e+006 1.000000730550e-010 
1.857600000000e+006 1.000001977163e-010 
1.900800000000e+006 1.000005224711e-010 
1.944000000000e+006 1.000013489990e-010 
1.987200000000e+006 1.000034054986e-010 
2.030400000000e+006 1.000084110160e-010 
2.073600000000e+006 1.000203368320e-010 
2.116800000000e+006 1.000481663315e-010 
2.160000000000e+006 1.001118093345e-010 
2.203200000000e+006 1.002545227764e-010 
2.246400000000e+006 1.005684869839e-010 
2.289600000000e+006 1.012464724023e-010 
2.332800000000e+006 1.026842827396e-010 
2.376000000000e+006 1.056802177735e-010 
2.419200000000e+006 1.118166272458e-010 
2.462400000000e+006 1.241772856309e-010 
2.505600000000e+006 1.486737022163e-010 
2.548800000000e+006 1.964572946294e-010 
2.592000000000e+006 2.882368579774e-010 
2.635200000000e+006 4.618865460271e-010 
2.678400000000e+006 7.856495329369e-010 
2.721600000000e+006 1.380714727626e-009 
2.764800000000e+006 2.459263201241e-009 
2.808000000000e+006 4.387683768209e-009 
2.851200000000e+006 7.790158362293e-009 
2.894400000000e+006 1.371611619785e-008 
2.937600000000e+006 2.390738098503e-008 
2.980800000000e+006 4.121887534607e-008 
3.024000000000e+006 7.027279997531e-008 
3.067200000000e+006 1.184633395277e-007 
3.110400000000e+006 1.974810959077e-007 
3.153600000000e+006 3.255987836110e-007 
3.196800000000e+006 5.310586465179e-007 
3.240000000000e+006 8.570358249786e-007 
3.283200000000e+006 1.368829586511e-006 
3.326400000000e+006 2.164169280889e-006 
3.369600000000e+006 3.387825325352e-006 
3.412800000000e+006 5.252106242379e-006 
3.456000000000e+006 8.065315724085e-006 
3.499200000000e+006 1.227086073975e-005 
3.542400000000e+006 1.850046013663e-005 
3.585600000000e+006 2.764582436012e-005 
3.628800000000e+006 4.095429124692e-005 
3.672000000000e+006 6.015520539163e-005 
3.715200000000e+006 8.762535216715e-005 
3.758400000000e+006 1.266035238560e-004 
3.801600000000e+006 1.814662502615e-004 
3.844800000000e+006 2.580789518599e-004 
3.888000000000e+006 3.642390940838e-004 
3.931200000000e+006 5.102306231738e-004 
3.974400000000e+006 7.095114339677e-004 
4.017600000000e+006 9.795583371998e-004 
4.060800000000e+006 1.342896935112e-003 
4.104000000000e+006 1.828345678162e-003 
4.147200000000e+006 2.472505987085e-003 
4.190400000000e+006 3.321532002905e-003 
4.233600000000e+006 4.433214566459e-003 
4.276800000000e+006 5.879413021464e-003 
4.320000000000e+006 7.748870617776e-003 
4.363200000000e+006 1.015044410753e-002 
4.406400000000e+006 1.321677600134e-002 
4.449600000000e+006 1.710843419086e-002 
4.492800000000e+006 2.201853525707e-002 
4.536000000000e+006 2.817786112288e-002 
4.579200000000e+006 3.586046465421e-002 
4.622400000000e+006 4.538975600998e-002 
4.665600000000e+006 5.714503886029e-002 
4.708800000000e+006 7.156845127356e-002 
4.752000000000e+006 8.917225814232e-002 
4.795200000000e+006 1.105464207334e-001 
4.838400000000e+006 1.363663267235e-001 
4.881600000000e+006 1.674005948808e-001 
4.924800000000e+006 2.045188020128e-001 
4.968000000000e+006 2.486989875122e-001 
5.011200000000e+006 3.010347651523e-001 
5.054400000000e+006 3.627418755270e-001 
5.097600000000e+006 4.351639422566e-001 
5.140800000000e+006 5.197773162522e-001 
5.184000000000e+006 6.181946971939e-001 
5.227200000000e+006 7.321673932681e-001 
5.270400000000e+006 8.635860395005e-001 
5.313600000000e+006 1.014479545019e+000 
5.356800000000e+006 1.187012011962e+000 
5.400000000000e+006 1.383477716023e+000 
5.443200000000e+006 1.606293711584e+000 
5.486400000000e+006 1.857990279941e+000 
5.529600000000e+006 2.141198869603e+000 
5.572800000000e+006 2.458637735880e+000 
5.616000000000e+006 2.813095157124e+000 
5.659200000000e+006 3.207410311512e+000 
5.702400000000e+006 3.644452200639e+000 
5.745600000000e+006 4.127096126079e+000 
5.788800000000e+006 4.658198781903e+000 
5.832000000000e+006 5.240571540920e+000 
5.875200000000e+006 5.876952525106e+000 
5.918400000000e+006 6.569977654588e+000 
5.961600000000e+006 7.322151291793e+000 
6.004800000000e+006 8.135816539382e+000 
6.048000000000e+006 9.013125854831e+000 
6.091200000000e+006 9.956012299635e+000 
6.134400000000e+006 1.096616186671e+001 
6.177600000000e+006 1.204498719253e+001 
6.220800000000e+006 1.319360304604e+001 
6.264000000000e+006 1.441280477894e+001 
6.307200000000e+006 1.570304839878e+001 
6.350400000000e+006 1.706443428518e+001 
6.393600000000e+006 1.849669425870e+001 
6.436800000000e+006 1.999918161126e+001 
6.480000000000e+006 2.157086519853e+001 
6.523200000000e+006 2.321032729713e+001 
6.566400000000e+006 2.491576531257e+001 
6.609600000000e+006 2.668499730540e+001 
6.652800000000e+006 2.851547150516e+001 
6.696000000000e+006 3.040427948748e+001 
6.739200000000e+006 3.234817315564e+001 
6.782400000000e+006 3.434358488091e+001 
6.825600000000e+006 3.638665098866e+001 
6.868800000000e+006 3.847323755424e+001 
6.912000000000e+006 4.059896976708e+001 
6.955200000000e+006 4.275926226988e+001 
6.998400000000e+006 4.494935235119e+001 
7.041600000000e+006 4.716433346399e+001 
7.084800000000e+006 4.939919036123e+001 
7.128000000000e+006 5.164883476168e+001 
7.171200000000e+006 5.390814040556e+001 
7.214400000000e+006 5.617197908589e+001 
7.257600000000e+006 5.843525411379e+001 
7.300800000000e+006 6.069293486909e+001 
7.344000000000e+006 6.294008820461e+001 
7.387200000000e+006 6.517190922637e+001 
7.430400000000e+006 6.738374950687e+001 
7.473600000000e+006 6.957114342295e+001 
7.516800000000e+006 7.172983208603e+001 
7.560000000000e+006 7.385578418975e+001 
7.603200000000e+006 7.594521473378e+001 
7.646400000000e+006 7.799460022592e+001 
7.689600000000e+006 8.000069268681e+001 
7.732800000000e+006 8.196052860669e+001 
7.776000000000e+006 8.387143679361e+001 
7.819200000000e+006 8.573104275698e+001 
7.862400000000e+006 8.753727083383e+001 
7.905600000000e+006 8.928834322750e+001 
7.948800000000e+006 9.098277728770e+001 
7.992000000000e+006 9.261938051966e+001 
8.035200000000e+006 9.419724298188e+001 
8.078400000000e+006 9.571572882604e+001 
8.121600000000e+006 9.717446497823e+001 
8.164800000000e+006 9.857332947316e+001 
8.208000000000e+006 9.991243815039e+001 
8.251200000000e+006 1.011921302553e+002 
8.294400000000e+006 1.024129532844e+002 
8.337600000000e+006 1.035756473680e+002 
8.380800000000e+006 1.046811290741e+002 
8.424000000000e+006 1.057304752316e+002 
8.467200000000e+006 1.067249061620e+002 
8.510400000000e+006 1.076657698139e+002 
8.553600000000e+006 1.085545252029e+002 
8.596800000000e+006 1.093927269225e+002 
8.640000000000e+006 1.101820100822e+002 
8.683200000000e+006 1.109240752238e+002 
8.726400000000e+006 1.116206746362e+002 
8.769600000000e+006 1.122735991187e+002 
8.812800000000e+006 1.128846651709e+002 
8.856000000000e+006 1.134557037377e+002 
8.899200000000e+006 1.139885492270e+002 
8.942400000000e+006 1.144850297078e+002 
8.985600000000e+006 1.149469578931e+002 
9.028800000000e+006 1.153761229299e+002 
9.072000000000e+006 1.157742832035e+002 
9.115200000000e+006 1.161431600150e+002 
9.158400000000e+006 1.164844319754e+002 
9.201600000000e+006 1.167997301930e+002 
9.244800000000e+006 1.170906343512e+002 
9.288000000000e+006 1.173586693951e+002 
9.331200000000e+006 1.176053029685e+002 
9.374400000000e+006 1.178319432912e+002 
9.417600000000e+006 1.180399379004e+002 
9.460800000000e+006 1.182305727623e+002 
9.504000000000e+006 1.184050718820e+002 
9.547200000000e+006 1.185645973906e+002 
9.590400000000e+006 1.187102499441e+002 
9.633600000000e+006 1.188430696004e+002 
9.676800000000e+006 1.189640368833e+002 
9.720000000000e+006 1.190740741384e+002 
9.763200000000e+006 1.191740471455e+002 
9.806400000000e+006 1.192647668909e+002 
9.849600000000e+006 1.193469914804e+002 
9.892800000000e+006 1.194214281816e+002 
9.936000000000e+006 1.194887355787e+002 
9.979200000000e+006 1.195495257327e+002 
1.002240000000e+007 1.196043664343e+002 
1.006560000000e+007 1.196537834565e+002 
1.010880000000e+007 1.196982627987e+002 
1.015200000000e+007 1.197382529205e+002 
1.019520000000e+007 1.197741669353e+002 
1.023840000000e+007 1.198063847706e+002 
1.028160000000e+007 1.198352552523e+002 
1.032480000000e+007 1.198610981464e+002 
1.036800000000e+007 1.198842061200e+002 
1.041120000000e+007 1.199048466152e+002 
1.045440000000e+007 1.199232636596e+002 
1.049760000000e+007 1.199396795781e+002 
1.054080000000e+007 1.199542966314e+002 
1.058400000000e+007 1.199672985580e+002 
1.062720000000e+007 1.199788520313e+002 
1.067040000000e+007 1.199891080346e+002 
1.071360000000e+007 1.199982031488e+002 
1.075680000000e+007 1.200062607584e+002 
1.080000000000e+007 1.200133921778e+002 
1.084320000000e+007 1.200196976982e+002 
1.088640000000e+007 1.200252675622e+002 
1.092960000000e+007 1.200301828677e+002 
1.097280000000e+007 1.200345163999e+002 
1.101600000000e+007 1.200383334040e+002 
1.105920000000e+007 1.200416922925e+002 
1.110240000000e+007 1.200446452977e+002 
1.114560000000e+007 1.200472390697e+002 
1.118880000000e+007 1.200495152233e+002 
1.123200000000e+007 1.200515108380e+002 
1.127520000000e+007 1.200532589142e+002 
1.131840000000e+007 1.200547887883e+002 
1.136160000000e+007 1.200561265099e+002 
1.140480000000e+007 1.200572951845e+002 
1.144800000000e+007 1.200583152831e+002 
1.149120000000e+007 1.200592049236e+002 
1.153440000000e+007 1.200599801231e+002 
1.157760000000e+007 1.200606550274e+002 
1.162080000000e+007 1.200612421156e+002 
1.166400000000e+007 1.200617523852e+002 
1.170720000000e+007 1.200621955184e+002 
1.175040000000e+007 1.200625800302e+002 
1.179360000000e+007 1.200629134019e+002 
1.183680000000e+007 1.200632021999e+002 
1.188000000000e+007 1.200634521819e+002 
1.192320000000e+007 1.200636683914e+002 
1.196640000000e+007 1.200638552424e+002 
1.200960000000e+007 1.200640165938e+002 
1.205280000000e+007 1.200641558163e+002 
1.209600000000e+007 1.200642758515e+002 
1.213920000000e+007 1.200643792637e+002 
1.218240000000e+007 1.200644682867e+002 
1.222560000000e+007 1.200645448644e+002 
1.226880000000e+007 1.200646106869e+002 
1.231200000000e+007 1.200646672222e+002 
1.235520000000e+007 1.200647157447e+002 
1.239840000000e+007 1.200647573592e+002 
1.244160000000e+007 1.200647930230e+002 
1.248480000000e+007 1.200648235648e+002 
1.252800000000e+007 1.200648497013e+002 
1.257120000000e+007 1.200648720518e+002 
1.261440000000e+007 1.200648911512e+002 
1.265760000000e+007 1.200649074608e+002 
1.270080000000e+007 1.200649213783e+002 
1.274400000000e+007 1.200649332463e+002 
1.278720000000e+007 1.200649433596e+002 
1.283040000000e+007 1.200649519717e+002 
1.287360000000e+007 1.200649593004e+002 
1.291680000000e+007 1.200649655328e+002 
1.296000000000e+007 1.200649708293e+002 
1.300320000000e+007 1.200649753273e+002 
1.304640000000e+007 1.200649791448e+002 
1.308960000000e+007 1.200649823826e+002 
1.313280000000e+007 1.200649851269e+002 
1.317600000000e+007 1.200649874514e+002 
1.321920000000e+007 1.200649894190e+002 
1.326240000000e+007 1.200649910835e+002 
1.330560000000e+007 1.200649924907e+002 
1.334880000000e+007 1.200649936796e+002 
1.339200000000e+007 1.200649946834e+002 
1.343520000000e+007 1.200649955304e+002 
1.347840000000e+007 1.200649962447e+002 
1.352160000000e+007 1.200649968466e+002 
1.356480000000e+007 1.200649973536e+002 
1.360800000000e+007 1.200649977804e+002 
1.365120000000e+007 1.200649981394e+002 
1.369440000000e+007 1.200649984412e+002 
1.373760000000e+007 1.200649986948e+002 
1.378080000000e+007 1.200649989078e+002 
1.382400000000e+007 1.200649990865e+002 
1.386720000000e+007 1.200649992364e+002 
1.391040000000e+007 1.200649993621e+002 
1.395360000000e+007 1.200649994673e+002 
1.399680000000e+007 1.200649995555e+002 
1.404000000000e+007 1.200649996292e+002 
1.408320000000e+007 1.200649996909e+002 
1.412640000000e+007 1.200649997425e+002 
1.416960000000e+007 1.200649997855e+002 
1.421280000000e+007 1.200649998215e+002 
1.425600000000e+007 1.200649998515e+002 
1.429920000000e+007 1.200649998765e+002 
1.434240000000e+007 1.200649998974e+002 
1.438560000000e+007 1.200649999148e+002 
1.442880000000e+007 1.200649999293e+002 
1.447200000000e+007 1.200649999413e+002 
1.451520000000e+007 1.200649999513e+002 
1.455840000000e+007 1.200649999597e+002 
1.460160000000e+007 1.200649999666e+002 
1.464480000000e+007 1.200649999723e+002 
1.468800000000e+007 1.200649999771e+002 
1.473120000000e+007 1.200649999810e+002 
1.477440000000e+007 1.200649999843e+002 
1.481760000000e+007 1.200649999871e+002 
1.486080000000e+007 1.200649999893e+002 
1.490400000000e+007 1.200649999912e+002 
1.494720000000e+007 1.200649999927e+002 
1.499040000000e+007 1.200649999940e+002 
1.503360000000e+007 1.200649999950e+002 
1.507680000000e+007 1.200649999959e+002 
1.512000000000e+007 1.200649999966e+002 
1.516320000000e+007 1.200649999972e+002 
1.520640000000e+007 1.200649999977e+002 
1.524960000000e+007 1.200649999981e+002 
1.529280000000e+007 1.200649999985e+002 
1.533600000000e+007 1.200649999987e+002 
1.537920000000e+007 1.200649999990e+002 
1.542240000000e+007 1.200649999991e+002 
1.546560000000e+007 1.200649999993e+002 
1.550880000000e+007 1.200649999994e+002 
1.555200000000e+007 1.200649999995e+002 
1.559520000000e+007 1.200649999996e+002 
1.563840000000e+007 1.200649999997e+002 
1.568160000000e+007 1.200649999997e+002 
1.572480000000e+007 1.200649999998e+002 
1.576800000000e+007 1.200649999998e+002 
1.581120000000e+007 1.200649999999e+002 
1.585440000000e+007 1.200649999999e+002 
1.589760000000e+007 1.200649999999e+002 
1.594080000000e+007 1.200649999999e+002 
1.598400000000e+007 1.200649999999e+002 
1.602720000000e+007 1.200649999999e+002 
1.607040000000e+007 1.200650000000e+002 
1.611360000000e+007 1.200650000000e+002 
1.615680000000e+007 1.200650000000e+002 
1.620000000000e+007 1.200650000000e+002 
1.624320000000e+007 1.200650000000e+002 
1.628640000000e+007 1.200650000000e+002 
1.632960000000e+007 1.200650000000e+002 
1.637280000000e+007 1.200650000000e+002 
1.641600000000e+007 1.200650000000e+002 
1.645920000000e+007 1.200650000000e+002 
1.650240000000e+007 1.200650000000e+002 
1.654560000000e+007 1.200650000000e+002 
1.658880000000e+007 1.200650000000e+002 
1.663200000000e+007 1.200650000000e+002 
1.667520000000e+007 1.200650000000e+002 
1.671840000000e+007 1.200650000000e+002 
1.676160000000e+007 1.200650000000e+002 
1.680480000000e+007 1.200650000000e+002 
1.684800000000e+007 1.200650000000e+002 
1.689120000000e+007 1.200650000000e+002 
1.693440000000e+007 1.200650000000e+002 
1.697760000000e+007 1.200650000000e+002 
1.702080000000e+007 1.200650000000e+002 
1.706400000000e+007 1.200650000000e+002 
1.710720000000e+007 1.200650000000e+002 
1.715040000000e+007 1.200650000000e+002 
1.719360000000e+007 1.200650000000e+002 
1.723680000000e+007 1.200650000000e+002 
1.728000000000e+007 1.200650000000e+002 
1.732320000000e+007 1.200650000000e+002 
1.736640000000e+007 1.200650000000e+002 
1.740960000000e+007 1.200650000000e+002 
1.745280000000e+007 1.200650000000e+002 
1.749600000000e+007 1.200650000000e+002 
1.753920000000e+007 1.200650000000e+002 
1.758240000000e+007 1.200650000000e+002 
1.762560000000e+007 1.200650000000e+002 
1.766880000000e+007 1.200650000000e+002 
1.771200000000e+007 1.200650000000e+002 
1.775520000000e+007 1.200650000000e+002 
1.779840000000e+007 1.200650000000e+002 
1.784160000000e+007 1.200650000000e+002 
1.788480000000e+007 1.200650000000e+002 
1.792800000000e+007 1.200650000000e+002 
1.797120000000e+007 1.200650000000e+002 
1.801440000000e+007 1.200650000000e+002 
1.805760000000e+007 1.200650000000e+002 
1.810080000000e+007 1.200650000000e+002 
1.814400000000e+007 1.200650000000e+002 
1.818720000000e+007 1.200650000000e+002 
1.823040000000e+007 1.200650000000e+002 
1.827360000000e+007 1.200650000000e+002 
1.831680000000e+007 1.200650000000e+002 
1.836000000000e+007 1.200650000000e+002 
1.840320000000e+007 1.200650000000e+002 
1.844640000000e+007 1.200650000000e+002 
1.848960000000e+007 1.200650000000e+002 
1.853280000000e+007 1.200650000000e+002 
1.857600000000e+007 1.200650000000e+002 
1.861920000000e+007 1.200650000000e+002 
1.866240000000e+007 1.200650000000e+002 
1.870560000000e+007 1.200650000000e+002 
1.874880000000e+007 1.200650000000e+002 
1.879200000000e+007 1.200650000000e+002 
1.883520000000e+007 1.200650000000e+002 
1.887840000000e+007 1.200650000000e+002 
1.892160000000e+007 1.200650000000e+002 
1.896480000000e+007 1.200650000000e+002 
1.900800000000e+007 1.200650000000e+002 
1.905120000000e+007 1.200650000000e+002 
1.909440000000e+007 1.200650000000e+002 
1.913760000000e+007 1.200650000000e+002 
1.918080000000e+007 1.200650000000e+002 
1.922400000000e+007 1.200650000000e+002 
1.926720000000e+007 1.200650000000e+002 
1.931040000000e+007 1.200650000000e+002 
1.935360000000e+007 1.200650000000e+002 
1.939680000000e+007 1.200650000000e+002 
1.944000000000e+007 1.200650000000e+002 
1.948320000000e+007 1.200650000000e+002 
1.952640000000e+007 1.200650000000e+002 
1.956960000000e+007 1.200650000000e+002 
1.961280000000e+007 1.200650000000e+002 
1.965600000000e+007 1.200650000000e+002 
1.969920000000e+007 1.200650000000e+002 
1.974240000000e+007 1.200650000000e+002 
1.978560000000e+007 1.200650000000e+002 
1.982880000000e+007 1.200650000000e+002 
1.987200000000e+007 1.200650000000e+002 
1.991520000000e+007 1.200650000000e+002 
1.995840000000e+007 1.200650000000e+002 
2.000160000000e+007 1.200650000000e+002 
2.004480000000e+007 1.200650000000e+002 
2.008800000000e+007 1.200650000000e+002 
2.013120000000e+007 1.200650000000e+002 
2.017440000000e+007 1.200650000000e+002 
2.021760000000e+007 1.200650000000e+002 
2.026080000000e+007 1.200650000000e+002 
2.030400000000e+007 1.200650000000e+002 
2.034720000000e+007 1.200650000000e+002 
2.039040000000e+007 1.200650000000e+002 
2.043360000000e+007 1.200650000000e+002 
2.047680000000e+007 1.200650000000e+002 
2.052000000000e+007 1.200650000000e+002 
2.056320000000e+007 1.200650000000e+002 
2.060640000000e+007 1.200650000000e+002 
2.064960000000e+007 1.200650000000e+002 
2.069280000000e+007 1.200650000000e+002 
2.073600000000e+007 1.200650000000e+002 
2.077920000000e+007 1.200650000000e+002 
2.082240000000e+007 1.200650000000e+002 
2.086560000000e+007 1.200650000000e+002 
2.090880000000e+007 1.200650000000e+002 
2.095200000000e+007 1.200650000000e+002 
2.099520000000e+007 1.200650000000e+002 
2.103840000000e+007 1.200650000000e+002 
2.108160000000e+007 1.200650000000e+002 
2.112480000000e+007 1.200650000000e+002 
2.116800000000e+007 1.200650000000e+002 
2.121120000000e+007 1.200650000000e+002 
2.125440000000e+007 1.200650000000e+002 
2.129760000000e+007 1.200650000000e+002 
2.134080000000e+007 1.200650000000e+002 
2.138400000000e+007 1.200650000000e+002 
2.142720000000e+007 1.200650000000e+002 
2.147040000000e+007 1.200650000000e+002 
2.151360000000e+007 1.200650000000e+002 
2.155680000000e+007 1.200650000000e+002 
2.160000000000e+007 1.200650000000e+002 
2.164320000000e+007 1.200650000000e+002 
2.168640000000e+007 1.200650000000e+002 
2.172960000000e+007 1.200650000000e+002 
2.177280000000e+007 1.200650000000e+002 
2.181600000000e+007 1.200650000000e+002 
2.185920000000e+007 1.200650000000e+002 
2.190240000000e+007 1.200650000000e+002 
2.194560000000e+007 1.200650000000e+002 
2.198880000000e+007 1.200650000000e+002 
2.203200000000e+007 1.200650000000e+002 
2.207520000000e+007 1.200650000000e+002 
2.211840000000e+007 1.200650000000e+002 
2.216160000000e+007 1.200650000000e+002 
2.220480000000e+007 1.200650000000e+002 
2.224800000000e+007 1.200650000000e+002 
2.229120000000e+007 1.200650000000e+002 
2.233440000000e+007 1.200650000000e+002 
2.237760000000e+007 1.200650000000e+002 
2.242080000000e+007 1.200650000000e+002 
2.246400000000e+007 1.200650000000e+002 
2.250720000000e+007 1.200650000000e+002 
2.255040000000e+007 1.200650000000e+002 
2.259360000000e+007 1.200650000000e+002 
2.263680000000e+007 1.200650000000e+002 
2.268000000000e+007 1.200650000000e+002 
2.272320000000e+007 1.200650000000e+002 
2.276640000000e+007 1.200650000000e+002 
2.280960000000e+007 1.200650000000e+002 
2.285280000000e+007 1.200650000000e+002 
2.289600000000e+007 1.200650000000e+002 
2.293920000000e+007 1.200650000000e+002 
2.298240000000e+007 1.200650000000e+002 
2.302560000000e+007 1.200650000000e+002 
2.306880000000e+007 1.200650000000e+002 
2.311200000000e+007 1.200650000000e+002 
2.315520000000e+007 1.200650000000e+002 
2.319840000000e+007 1.200650000000e+002 
2.324160000000e+007 1.200650000000e+002 
2.328480000000e+007 1.200650000000e+002 
2.332800000000e+007 1.200650000000e+002 
2.337120000000e+007 1.200650000000e+002 
2.341440000000e+007 1.200650000000e+002 
2.345760000000e+007 1.200650000000e+002 
2.350080000000e+007 1.200650000000e+002 
2.354400000000e+007 1.200650000000e+002 
2.358720000000e+007 1.200650000000e+002 
2.363040000000e+007 1.200650000000e+002 
2.367360000000e+007 1.200650000000e+002 
2.371680000000e+007 1.200650000000e+002 
2.376000000000e+007 1.200650000000e+002 
2.380320000000e+007 1.200650000000e+002 
2.384640000000e+007 1.200650000000e+002 
2.388960000000e+007 1.200650000000e+002 
2.393280000000e+007 1.200650000000e+002 
2.397600000000e+007 1.200650000000e+002 
2.401920000000e+007 1.200650000000e+002 
2.406240000000e+007 1.200650000000e+002 
2.410560000000e+007 1.200650000000e+002 
2.414880000000e+007 1.200650000000e+002 
2.419200000000e+007 1.200650000000e+002 
2.423520000000e+007 1.200650000000e+002 
2.427840000000e+007 1.200650000000e+002 
2.432160000000e+007 1.200650000000e+002 
2.436480000000e+007 1.200650000000e+002 
2.440800000000e+007 1.200650000000e+002 
2.445120000000e+007 1.200650000000e+002 
2.449440000000e+007 1.200650000000e+002 
2.453760000000e+007 1.200650000000e+002 
2.458080000000e+007 1.200650000000e+002 
2.462400000000e+007 1.200650000000e+002 
2.466720000000e+007 1.200650000000e+002 
2.471040000000e+007 1.200650000000e+002 
2.475360000000e+007 1.200650000000e+002 
2.479680000000e+007 1.200650000000e+002 
2.484000000000e+007 1.200650000000e+002 
2.488320000000e+007 1.200650000000e+002 
2.492640000000e+007 1.200650000000e+002 
2.496960000000e+007 1.200650000000e+002 
2.501280000000e+007 1.200650000000e+002 
2.505600000000e+007 1.200650000000e+002 
2.509920000000e+007 1.200650000000e+002 
2.514240000000e+007 1.200650000000e+002 
2.518560000000e+007 1.200650000000e+002 
2.522880000000e+007 1.200650000000e+002 
2.527200000000e+007 1.200650000000e+002 
2.531520000000e+007 1.200650000000e+002 
2.535840000000e+007 1.200650000000e+002 
2.540160000000e+007 1.200650000000e+002 
2.544480000000e+007 1.200650000000e+002 
2.548800000000e+007 1.200650000000e+002 
2.553120000000e+007 1.200650000000e+002 
2.557440000000e+007 1.200650000000e+002 
2.561760000000e+007 1.200650000000e+002 
2.566080000000e+007 1.200650000000e+002 
2.570400000000e+007 1.200650000000e+002 
2.574720000000e+007 1.200650000000e+002 
2.579040000000e+007 1.200650000000e+002 
2.583360000000e+007 1.200650000000e+002 
2.587680000000e+007 1.200650000000e+002 
2.592000000000e+007 1.200650000000e+002 
2.596320000000e+007 1.200650000000e+002 
2.600640000000e+007 1.200650000000e+002 
2.604960000000e+007 1.200650000000e+002 
2.609280000000e+007 1.200650000000e+002 
2.613600000000e+007 1.200650000000e+002 
2.617920000000e+007 1.200650000000e+002 
2.622240000000e+007 1.200650000000e+002 
2.626560000000e+007 1.200650000000e+002 
2.630880000000e+007 1.200650000000e+002 
2.635200000000e+007 1.200650000000e+002 
2.639520000000e+007 1.200650000000e+002 
2.643840000000e+007 1.200650000000e+002 
2.648160000000e+007 1.200650000000e+002 
2.652480000000e+007 1.200650000000e+002 
2.656800000000e+007 1.200650000000e+002 
2.661120000000e+007 1.200650000000e+002 
2.665440000000e+007 1.200650000000e+002 
2.669760000000e+007 1.200650000000e+002 
2.674080000000e+007 1.200650000000e+002 
2.678400000000e+007 1.200650000000e+002 
2.682720000000e+007 1.200650000000e+002 
2.687040000000e+007 1.200650000000e+002 
2.691360000000e+007 1.200650000000e+002 
2.695680000000e+007 1.200650000000e+002 
2.700000000000e+007 1.200650000000e+002 
2.704320000000e+007 1.200650000000e+002 
2.708640000000e+007 1.200650000000e+002 
2.712960000000e+007 1.200650000000e+002 
2.717280000000e+007 1.200650000000e+002 
2.721600000000e+007 1.200650000000e+002 
2.725920000000e+007 1.200650000000e+002 
2.730240000000e+007 1.200650000000e+002 
2.734560000000e+007 1.200650000000e+002 
2.738880000000e+007 1.200650000000e+002 
2.743200000000e+007 1.200650000000e+002 
2.747520000000e+007 1.200650000000e+002 
2.751840000000e+007 1.200650000000e+002 
2.756160000000e+007 1.200650000000e+002 
2.760480000000e+007 1.200650000000e+002 
2.764800000000e+007 1.200650000000e+002 
2.769120000000e+007 1.200650000000e+002 
2.773440000000e+007 1.200650000000e+002 
2.777760000000e+007 1.200650000000e+002 
2.782080000000e+007 1.200650000000e+002 
2.786400000000e+007 1.200650000000e+002 
2.790720000000e+007 1.200650000000e+002 
2.795040000000e+007 1.200650000000e+002 
2.799360000000e+007 1.200650000000e+002 
2.803680000000e+007 1.200650000000e+002 
2.808000000000e+007 1.200650000000e+002 
2.812320000000e+007 1.200650000000e+002 
2.816640000000e+007 1.200650000000e+002 
2.820960000000e+007 1.200650000000e+002 
2.825280000000e+007 1.200650000000e+002 
2.829600000000e+007 1.200650000000e+002 
2.833920000000e+007 1.200650000000e+002 
2.838240000000e+007 1.200650000000e+002 
2.842560000000e+007 1.200650000000e+002 
2.846880000000e+007 1.200650000000e+002 
2.851200000000e+007 1.200650000000e+002 
2.855520000000e+007 1.200650000000e+002 
2.859840000000e+007 1.200650000000e+002 
2.864160000000e+007 1.200650000000e+002 
2.868480000000e+007 1.200650000000e+002 
2.872800000000e+007 1.200650000000e+002 
2.877120000000e+007 1.200650000000e+002 
2.881440000000e+007 1.200650000000e+002 
2.885760000000e+007 1.200650000000e+002 
2.890080000000e+007 1.200650000000e+002 
2.894400000000e+007 1.200650000000e+002 
2.898720000000e+007 1.200650000000e+002 
2.903040000000e+007 1.200650000000e+002 
2.907360000000e+007 1.200650000000e+002 
2.911680000000e+007 1.200650000000e+002 
2.916000000000e+007 1.200650000000e+002 
2.920320000000e+007 1.200650000000e+002 
2.924640000000e+007 1.200650000000e+002 
2.928960000000e+007 1.200650000000e+002 
2.933280000000e+007 1.200650000000e+002 
2.937600000000e+007 1.200650000000e+002 
2.941920000000e+007 1.200650000000e+002 
2.946240000000e+007 1.200650000000e+002 
2.950560000000e+007 1.200650000000e+002 
2.954880000000e+007 1.200650000000e+002 
2.959200000000e+007 1.200650000000e+002 
2.963520000000e+007 1.200650000000e+002 
2.967840000000e+007 1.200650000000e+002 
2.972160000000e+007 1.200650000000e+002 
2.976480000000e+007 1.200650000000e+002 
2.980800000000e+007 1.200650000000e+002 
2.985120000000e+007 1.200650000000e+002 
2.989440000000e+007 1.200650000000e+002 
2.993760000000e+007 1.200650000000e+002 
2.998080000000e+007 1.200650000000e+002 
3.002400000000e+007 1.200650000000e+002 
3.006720000000e+007 1.200650000000e+002 
3.011040000000e+007 1.200650000000e+002 
3.015360000000e+007 1.200650000000e+002 
3.019680000000e+007 1.200650000000e+002 
3.024000000000e+007 1.200650000000e+002 
3.028320000000e+007 1.200650000000e+002 
3.032640000000e+007 1.200650000000e+002 
3.036960000000e+007 1.200650000000e+002 
3.041280000000e+007 1.200650000000e+002 
3.045600000000e+007 1.200650000000e+002 
3.049920000000e+007 1.200650000000e+002 
3.054240000000e+007 1.200650000000e+002 
3.058560000000e+007 1.200650000000e+002 
3.062880000000e+007 1.200650000000e+002 
3.067200000000e+007 1.200650000000e+002 
3.071520000000e+007 1.200650000000e+002 
3.075840000000e+007 1.200650000000e+002 
3.080160000000e+007 1.200650000000e+002 
3.084480000000e+007 1.200650000000e+002 
3.088800000000e+007 1.200650000000e+002 
3.093120000000e+007 1.200650000000e+002 
3.097440000000e+007 1.200650000000e+002 
3.101760000000e+007 1.200650000000e+002 
3.106080000000e+007 1.200650000000e+002 
3.110400000000e+007 1.200650000000e+002 
3.114720000000e+007 1.200650000000e+002 
3.119040000000e+007 1.200650000000e+002 
3.123360000000e+007 1.200650000000e+002 
3.127680000000e+007 1.200650000000e+002 
3.132000000000e+007 1.200650000000e+002 
3.136320000000e+007 1.200650000000e+002 
3.140640000000e+007 1.200650000000e+002 
3.144960000000e+007 1.200650000000e+002 