 TITLE = "Profiles along polylines"
 VARIABLES = "DIST" "PRESSURE1" "SATURATION1" "TCE" "NAPL_TCE" 
 ZONE T="TIME=0.000000000000e+000"
0.000000000000e+000 9.806700000000e+004 1.000000000000e+000 1.000000000000e-010 0.000000000000e+000 
3.300000000000e-001 9.806700000000e+004 1.000000000000e+000 1.000000000000e-010 0.000000000000e+000 
6.700000000000e-001 9.806700000000e+004 1.000000000000e+000 1.000000000000e-010 0.000000000000e+000 
1.000000000000e+000 9.806700000000e+004 1.000000000000e+000 1.000000000000e-010 0.000000000000e+000 
1.330000000000e+000 9.806700000000e+004 1.000000000000e+000 1.000000000000e-010 0.000000000000e+000 
1.670000000000e+000 9.806700000000e+004 1.000000000000e+000 1.000000000000e-010 0.000000000000e+000 
2.000000000000e+000 9.806700000000e+004 1.000000000000e+000 1.000000000000e-010 0.000000000000e+000 
2.330000000000e+000 9.806700000000e+004 1.000000000000e+000 1.000000000000e-010 0.000000000000e+000 
2.670000000000e+000 9.806700000000e+004 1.000000000000e+000 1.000000000000e-010 0.000000000000e+000 
3.000000000000e+000 9.806700000000e+004 1.000000000000e+000 1.000000000000e-010 0.000000000000e+000 
3.330000000000e+000 9.806700000000e+004 1.000000000000e+000 1.000000000000e-010 0.000000000000e+000 
3.670000000000e+000 9.806700000000e+004 1.000000000000e+000 1.000000000000e-010 0.000000000000e+000 
4.000000000000e+000 9.806700000000e+004 1.000000000000e+000 1.000000000000e-010 0.000000000000e+000 
4.330000000000e+000 9.806700000000e+004 1.000000000000e+000 1.000000000000e-010 0.000000000000e+000 
4.670000000000e+000 9.806700000000e+004 1.000000000000e+000 1.000000000000e-010 0.000000000000e+000 
5.000000000000e+000 9.806700000000e+004 9.500000000000e-001 1.206500000000e+001 1.944442500000e+002 
5.330000000000e+000 9.806700000000e+004 9.500000000000e-001 1.206500000000e+001 1.944442500000e+002 
5.670000000000e+000 9.806700000000e+004 9.500000000000e-001 1.206500000000e+001 1.944442500000e+002 
6.000000000000e+000 9.806700000000e+004 9.500000000000e-001 1.206500000000e+001 1.944442500000e+002 
6.330000000000e+000 9.806700000000e+004 9.500000000000e-001 1.206500000000e+001 1.944442500000e+002 
6.670000000000e+000 9.806700000000e+004 9.500000000000e-001 1.206500000000e+001 1.944442500000e+002 
7.000000000000e+000 9.806700000000e+004 9.500000000000e-001 1.206500000000e+001 1.944442500000e+002 
7.330000000000e+000 9.806700000000e+004 9.500000000000e-001 1.206500000000e+001 1.944442500000e+002 
7.670000000000e+000 9.806700000000e+004 9.500000000000e-001 1.206500000000e+001 1.944442500000e+002 
8.000000000000e+000 9.806700000000e+004 9.500000000000e-001 1.206500000000e+001 1.944442500000e+002 
8.330000000000e+000 9.806700000000e+004 9.500000000000e-001 1.206500000000e+001 1.944442500000e+002 
8.670000000000e+000 9.806700000000e+004 9.500000000000e-001 1.206500000000e+001 1.944442500000e+002 
9.000000000000e+000 9.806700000000e+004 9.500000000000e-001 1.206500000000e+001 1.944442500000e+002 
9.330000000000e+000 9.806700000000e+004 9.500000000000e-001 1.206500000000e+001 1.944442500000e+002 
9.670000000000e+000 9.806700000000e+004 9.500000000000e-001 1.206500000000e+001 1.944442500000e+002 
1.000000000000e+001 9.806700000000e+004 9.500000000000e-001 1.206500000000e+001 1.944442500000e+002 
1.033000000000e+001 9.806700000000e+004 9.500000000000e-001 1.206500000000e+001 1.944442500000e+002 
1.067000000000e+001 9.806700000000e+004 9.500000000000e-001 1.206500000000e+001 1.944442500000e+002 
1.100000000000e+001 9.806700000000e+004 9.500000000000e-001 1.206500000000e+001 1.944442500000e+002 
1.133000000000e+001 9.806700000000e+004 9.500000000000e-001 1.206500000000e+001 1.944442500000e+002 
1.167000000000e+001 9.806700000000e+004 9.500000000000e-001 1.206500000000e+001 1.944442500000e+002 
1.200000000000e+001 9.806700000000e+004 9.500000000000e-001 1.206500000000e+001 1.944442500000e+002 
1.233000000000e+001 9.806700000000e+004 9.500000000000e-001 1.206500000000e+001 1.944442500000e+002 
1.267000000000e+001 9.806700000000e+004 9.500000000000e-001 1.206500000000e+001 1.944442500000e+002 
1.300000000000e+001 9.806700000000e+004 9.500000000000e-001 1.206500000000e+001 1.944442500000e+002 
1.333000000000e+001 9.806700000000e+004 9.500000000000e-001 1.206500000000e+001 1.944442500000e+002 
1.367000000000e+001 9.806700000000e+004 9.500000000000e-001 1.206500000000e+001 1.944442500000e+002 
1.400000000000e+001 9.806700000000e+004 9.500000000000e-001 1.206500000000e+001 1.944442500000e+002 
1.433000000000e+001 9.806700000000e+004 9.500000000000e-001 1.206500000000e+001 1.944442500000e+002 
1.467000000000e+001 9.806700000000e+004 9.500000000000e-001 1.206500000000e+001 1.944442500000e+002 
1.500000000000e+001 9.806700000000e+004 9.500000000000e-001 1.206500000000e+001 1.944442500000e+002 
1.533000000000e+001 9.806700000000e+004 9.500000000000e-001 1.206500000000e+001 1.944442500000e+002 
1.567000000000e+001 9.806700000000e+004 9.500000000000e-001 1.206500000000e+001 1.944442500000e+002 
1.600000000000e+001 9.806700000000e+004 9.500000000000e-001 1.206500000000e+001 1.944442500000e+002 
1.633000000000e+001 9.806700000000e+004 9.500000000000e-001 1.206500000000e+001 1.944442500000e+002 
1.667000000000e+001 9.806700000000e+004 9.500000000000e-001 1.206500000000e+001 1.944442500000e+002 
1.700000000000e+001 9.806700000000e+004 9.500000000000e-001 1.206500000000e+001 1.944442500000e+002 
1.733000000000e+001 9.806700000000e+004 9.500000000000e-001 1.206500000000e+001 1.944442500000e+002 
1.767000000000e+001 9.806700000000e+004 9.500000000000e-001 1.206500000000e+001 1.944442500000e+002 
1.800000000000e+001 9.806700000000e+004 9.500000000000e-001 1.206500000000e+001 1.944442500000e+002 
1.833000000000e+001 9.806700000000e+004 9.500000000000e-001 1.206500000000e+001 1.944442500000e+002 
1.867000000000e+001 9.806700000000e+004 9.500000000000e-001 1.206500000000e+001 1.944442500000e+002 
1.900000000000e+001 9.806700000000e+004 9.500000000000e-001 1.206500000000e+001 1.944442500000e+002 
1.933000000000e+001 9.806700000000e+004 9.500000000000e-001 1.206500000000e+001 1.944442500000e+002 
1.967000000000e+001 9.806700000000e+004 9.500000000000e-001 1.206500000000e+001 1.944442500000e+002 
2.000000000000e+001 9.806700000000e+004 9.500000000000e-001 1.206500000000e+001 1.944442500000e+002 
2.033000000000e+001 9.806700000000e+004 9.500000000000e-001 1.206500000000e+001 1.944442500000e+002 
2.067000000000e+001 9.806700000000e+004 9.500000000000e-001 1.206500000000e+001 1.944442500000e+002 
2.100000000000e+001 9.806700000000e+004 9.500000000000e-001 1.206500000000e+001 1.944442500000e+002 
2.133000000000e+001 9.806700000000e+004 9.500000000000e-001 1.206500000000e+001 1.944442500000e+002 
2.167000000000e+001 9.806700000000e+004 9.500000000000e-001 1.206500000000e+001 1.944442500000e+002 
2.200000000000e+001 9.806700000000e+004 9.500000000000e-001 1.206500000000e+001 1.944442500000e+002 
2.233000000000e+001 9.806700000000e+004 9.500000000000e-001 1.206500000000e+001 1.944442500000e+002 
2.267000000000e+001 9.806700000000e+004 9.500000000000e-001 1.206500000000e+001 1.944442500000e+002 
2.300000000000e+001 9.806700000000e+004 9.500000000000e-001 1.206500000000e+001 1.944442500000e+002 
2.333000000000e+001 9.806700000000e+004 9.500000000000e-001 1.206500000000e+001 1.944442500000e+002 
2.367000000000e+001 9.806700000000e+004 9.500000000000e-001 1.206500000000e+001 1.944442500000e+002 
2.400000000000e+001 9.806700000000e+004 9.500000000000e-001 1.206500000000e+001 1.944442500000e+002 
2.433000000000e+001 9.806700000000e+004 9.500000000000e-001 1.206500000000e+001 1.944442500000e+002 
2.467000000000e+001 9.806700000000e+004 9.500000000000e-001 1.206500000000e+001 1.944442500000e+002 
2.500000000000e+001 9.806700000000e+004 9.500000000000e-001 1.206500000000e+001 1.944442500000e+002 
2.533000000000e+001 9.806700000000e+004 9.500000000000e-001 1.206500000000e+001 1.944442500000e+002 
2.567000000000e+001 9.806700000000e+004 9.500000000000e-001 1.206500000000e+001 1.944442500000e+002 
2.600000000000e+001 9.806700000000e+004 9.500000000000e-001 1.206500000000e+001 1.944442500000e+002 
2.633000000000e+001 9.806700000000e+004 9.500000000000e-001 1.206500000000e+001 1.944442500000e+002 
2.667000000000e+001 9.806700000000e+004 9.500000000000e-001 1.206500000000e+001 1.944442500000e+002 
2.700000000000e+001 9.806700000000e+004 9.500000000000e-001 1.206500000000e+001 1.944442500000e+002 
2.733000000000e+001 9.806700000000e+004 9.500000000000e-001 1.206500000000e+001 1.944442500000e+002 
2.767000000000e+001 9.806700000000e+004 9.500000000000e-001 1.206500000000e+001 1.944442500000e+002 
2.800000000000e+001 9.806700000000e+004 9.500000000000e-001 1.206500000000e+001 1.944442500000e+002 
2.833000000000e+001 9.806700000000e+004 9.500000000000e-001 1.206500000000e+001 1.944442500000e+002 
2.867000000000e+001 9.806700000000e+004 9.500000000000e-001 1.206500000000e+001 1.944442500000e+002 
2.900000000000e+001 9.806700000000e+004 9.500000000000e-001 1.206500000000e+001 1.944442500000e+002 
2.933000000000e+001 9.806700000000e+004 9.500000000000e-001 1.206500000000e+001 1.944442500000e+002 
2.967000000000e+001 9.806700000000e+004 9.500000000000e-001 1.206500000000e+001 1.944442500000e+002 
3.000000000000e+001 9.806700000000e+004 9.500000000000e-001 1.206500000000e+001 1.944442500000e+002 
3.033000000000e+001 9.806700000000e+004 1.000000000000e+000 1.000000000000e-010 0.000000000000e+000 
3.067000000000e+001 9.806700000000e+004 1.000000000000e+000 1.000000000000e-010 0.000000000000e+000 
3.100000000000e+001 9.806700000000e+004 1.000000000000e+000 1.000000000000e-010 0.000000000000e+000 
3.133000000000e+001 9.806700000000e+004 1.000000000000e+000 1.000000000000e-010 0.000000000000e+000 
3.167000000000e+001 9.806700000000e+004 1.000000000000e+000 1.000000000000e-010 0.000000000000e+000 
3.200000000000e+001 9.806700000000e+004 1.000000000000e+000 1.000000000000e-010 0.000000000000e+000 
3.233000000000e+001 9.806700000000e+004 1.000000000000e+000 1.000000000000e-010 0.000000000000e+000 
3.267000000000e+001 9.806700000000e+004 1.000000000000e+000 1.000000000000e-010 0.000000000000e+000 
3.300000000000e+001 9.806700000000e+004 1.000000000000e+000 1.000000000000e-010 0.000000000000e+000 
3.333000000000e+001 9.806700000000e+004 1.000000000000e+000 1.000000000000e-010 0.000000000000e+000 
3.367000000000e+001 9.806700000000e+004 1.000000000000e+000 1.000000000000e-010 0.000000000000e+000 
3.400000000000e+001 9.806700000000e+004 1.000000000000e+000 1.000000000000e-010 0.000000000000e+000 
3.433000000000e+001 9.806700000000e+004 1.000000000000e+000 1.000000000000e-010 0.000000000000e+000 
3.467000000000e+001 9.806700000000e+004 1.000000000000e+000 1.000000000000e-010 0.000000000000e+000 
3.500000000000e+001 9.806700000000e+004 1.000000000000e+000 1.000000000000e-010 0.000000000000e+000 
3.533000000000e+001 9.806700000000e+004 1.000000000000e+000 1.000000000000e-010 0.000000000000e+000 
3.567000000000e+001 9.806700000000e+004 1.000000000000e+000 1.000000000000e-010 0.000000000000e+000 
3.600000000000e+001 9.806700000000e+004 1.000000000000e+000 1.000000000000e-010 0.000000000000e+000 
3.633000000000e+001 9.806700000000e+004 1.000000000000e+000 1.000000000000e-010 0.000000000000e+000 
3.667000000000e+001 9.806700000000e+004 1.000000000000e+000 1.000000000000e-010 0.000000000000e+000 
3.700000000000e+001 9.806700000000e+004 1.000000000000e+000 1.000000000000e-010 0.000000000000e+000 
3.733000000000e+001 9.806700000000e+004 1.000000000000e+000 1.000000000000e-010 0.000000000000e+000 
3.767000000000e+001 9.806700000000e+004 1.000000000000e+000 1.000000000000e-010 0.000000000000e+000 
3.800000000000e+001 9.806700000000e+004 1.000000000000e+000 1.000000000000e-010 0.000000000000e+000 
3.833000000000e+001 9.806700000000e+004 1.000000000000e+000 1.000000000000e-010 0.000000000000e+000 
3.867000000000e+001 9.806700000000e+004 1.000000000000e+000 1.000000000000e-010 0.000000000000e+000 
3.900000000000e+001 9.806700000000e+004 1.000000000000e+000 1.000000000000e-010 0.000000000000e+000 
3.933000000000e+001 9.806700000000e+004 1.000000000000e+000 1.000000000000e-010 0.000000000000e+000 
3.967000000000e+001 9.806700000000e+004 1.000000000000e+000 1.000000000000e-010 0.000000000000e+000 
4.000000000000e+001 9.806700000000e+004 1.000000000000e+000 1.000000000000e-010 0.000000000000e+000 
4.033000000000e+001 9.806700000000e+004 1.000000000000e+000 1.000000000000e-010 0.000000000000e+000 
4.067000000000e+001 9.806700000000e+004 1.000000000000e+000 1.000000000000e-010 0.000000000000e+000 
4.100000000000e+001 9.806700000000e+004 1.000000000000e+000 1.000000000000e-010 0.000000000000e+000 
4.133000000000e+001 9.806700000000e+004 1.000000000000e+000 1.000000000000e-010 0.000000000000e+000 
4.167000000000e+001 9.806700000000e+004 1.000000000000e+000 1.000000000000e-010 0.000000000000e+000 
4.200000000000e+001 9.806700000000e+004 1.000000000000e+000 1.000000000000e-010 0.000000000000e+000 
4.233000000000e+001 9.806700000000e+004 1.000000000000e+000 1.000000000000e-010 0.000000000000e+000 
4.267000000000e+001 9.806700000000e+004 1.000000000000e+000 1.000000000000e-010 0.000000000000e+000 
4.300000000000e+001 9.806700000000e+004 1.000000000000e+000 1.000000000000e-010 0.000000000000e+000 
4.333000000000e+001 9.806700000000e+004 1.000000000000e+000 1.000000000000e-010 0.000000000000e+000 
4.367000000000e+001 9.806700000000e+004 1.000000000000e+000 1.000000000000e-010 0.000000000000e+000 
4.400000000000e+001 9.806700000000e+004 1.000000000000e+000 1.000000000000e-010 0.000000000000e+000 
4.433000000000e+001 9.806700000000e+004 1.000000000000e+000 1.000000000000e-010 0.000000000000e+000 
4.467000000000e+001 9.806700000000e+004 1.000000000000e+000 1.000000000000e-010 0.000000000000e+000 
4.500000000000e+001 9.806700000000e+004 1.000000000000e+000 1.000000000000e-010 0.000000000000e+000 
4.533000000000e+001 9.806700000000e+004 1.000000000000e+000 1.000000000000e-010 0.000000000000e+000 
4.567000000000e+001 9.806700000000e+004 1.000000000000e+000 1.000000000000e-010 0.000000000000e+000 
4.600000000000e+001 9.806700000000e+004 1.000000000000e+000 1.000000000000e-010 0.000000000000e+000 
4.633000000000e+001 9.806700000000e+004 1.000000000000e+000 1.000000000000e-010 0.000000000000e+000 
4.667000000000e+001 9.806700000000e+004 1.000000000000e+000 1.000000000000e-010 0.000000000000e+000 
4.700000000000e+001 9.806700000000e+004 1.000000000000e+000 1.000000000000e-010 0.000000000000e+000 
4.733000000000e+001 9.806700000000e+004 1.000000000000e+000 1.000000000000e-010 0.000000000000e+000 
4.767000000000e+001 9.806700000000e+004 1.000000000000e+000 1.000000000000e-010 0.000000000000e+000 
4.800000000000e+001 9.806700000000e+004 1.000000000000e+000 1.000000000000e-010 0.000000000000e+000 
4.833000000000e+001 9.806700000000e+004 1.000000000000e+000 1.000000000000e-010 0.000000000000e+000 
4.867000000000e+001 9.806700000000e+004 1.000000000000e+000 1.000000000000e-010 0.000000000000e+000 
4.900000000000e+001 9.806700000000e+004 1.000000000000e+000 1.000000000000e-010 0.000000000000e+000 
4.933000000000e+001 9.806700000000e+004 1.000000000000e+000 1.000000000000e-010 0.000000000000e+000 
4.967000000000e+001 9.806700000000e+004 1.000000000000e+000 1.000000000000e-010 0.000000000000e+000 
5.000000000000e+001 9.806700000000e+004 1.000000000000e+000 1.000000000000e-010 0.000000000000e+000 
 ZONE T="TIME=8.640000000000e+006"
0.000000000000e+000 9.810000000000e+004 1.000000000000e+000 1.000000000000e-015 0.000000000000e+000 
3.300000000000e-001 9.807330010612e+004 1.000000000000e+000 9.969580797113e-016 0.000000000000e+000 
6.700000000000e-001 9.804579112455e+004 1.000000000000e+000 1.175185977767e-015 0.000000000000e+000 
1.000000000000e+000 9.801909123065e+004 1.000000000000e+000 1.562246878237e-015 0.000000000000e+000 
1.330000000000e+000 9.799239133673e+004 1.000000000000e+000 3.736268724582e-014 0.000000000000e+000 
1.670000000000e+000 9.796488235508e+004 1.000000000000e+000 2.258898537039e-013 0.000000000000e+000 
2.000000000000e+000 9.793818246108e+004 1.000000000000e+000 -1.764111447016e-012 0.000000000000e+000 
2.330000000000e+000 9.791148256703e+004 1.000000000000e+000 2.369931449892e-012 0.000000000000e+000 
2.670000000000e+000 9.788397358522e+004 1.000000000000e+000 3.884539548141e-012 0.000000000000e+000 
3.000000000000e+000 9.785727369104e+004 1.000000000000e+000 -1.104560413680e-011 0.000000000000e+000 
3.330000000000e+000 9.783057379681e+004 1.000000000000e+000 8.132163218278e-012 0.000000000000e+000 
3.670000000000e+000 9.780306481478e+004 1.000000000000e+000 -2.241934747869e-011 0.000000000000e+000 
4.000000000000e+000 9.777636492040e+004 1.000000000000e+000 1.286504327882e-010 0.000000000000e+000 
4.330000000000e+000 9.774966502592e+004 1.000000000000e+000 -4.955400853240e-010 0.000000000000e+000 
4.670000000000e+000 9.772215604364e+004 1.000000000000e+000 1.815762352221e-009 0.000000000000e+000 
5.000000000000e+000 9.769545614897e+004 1.000000000000e+000 1.000000000000e-020 1.000000000000e-020 
5.330000000000e+000 9.766875625420e+004 1.000000000000e+000 4.023048512134e-008 1.000000000000e-020 
5.670000000000e+000 9.764124727159e+004 1.000000000000e+000 1.000000000000e-020 1.000000000000e-020 
6.000000000000e+000 9.761454737660e+004 1.000000000000e+000 6.656703750438e-007 1.000000000000e-020 
6.330000000000e+000 9.758784748150e+004 1.000000000000e+000 1.000000000000e-020 9.060977852901e-017 
6.670000000000e+000 9.756033849856e+004 1.000000000000e+000 9.743332431737e-006 1.000000000000e-020 
7.000000000000e+000 9.753363860324e+004 1.000000000000e+000 1.000000000000e-020 9.534581295768e-017 
7.330000000000e+000 9.750693870781e+004 1.000000000000e+000 1.411948583705e-004 1.766243271390e-016 
7.670000000000e+000 9.747942972453e+004 1.000000000000e+000 3.045185871980e-005 1.000000000000e-020 
8.000000000000e+000 9.745272982887e+004 1.000000000000e+000 2.082502222319e-003 1.000000000000e-020 
8.330000000000e+000 9.742602993312e+004 1.000000000000e+000 1.262167125969e-003 8.491294480224e-017 
8.670000000000e+000 9.739852094949e+004 1.000000000000e+000 2.983311138517e-002 2.126855054103e-016 
9.000000000000e+000 9.737182105352e+004 1.000000000000e+000 5.314245128445e-002 5.867828220902e-011 
9.330000000000e+000 9.734512115744e+004 1.000000000000e+000 2.459194706886e+000 3.959042968049e-005 
9.670000000000e+000 9.731717679346e+004 9.928610228685e-001 1.200635633867e+002 2.594959635605e+001 
1.000000000000e+001 9.728788583595e+004 9.653630299739e-001 1.200650150114e+002 1.404582777402e+002 
1.033000000000e+001 9.725643701607e+004 9.618898455468e-001 1.200686546385e+002 1.559921309016e+002 
1.067000000000e+001 9.722373737418e+004 9.613994652092e-001 1.200640487956e+002 1.582015221165e+002 
1.100000000000e+001 9.719195887464e+004 9.613363222306e-001 1.200648621429e+002 1.584860466616e+002 
1.133000000000e+001 9.716017506622e+004 9.613271679959e-001 1.200649801162e+002 1.585273086494e+002 
1.167000000000e+001 9.712742731861e+004 9.613258359210e-001 1.200649973139e+002 1.585333140750e+002 
1.200000000000e+001 9.709564262914e+004 9.613256584343e-001 1.200649996101e+002 1.585341143995e+002 
1.233000000000e+001 9.706385792470e+004 9.613256326976e-001 1.200649999438e+002 1.585342304730e+002 
1.267000000000e+001 9.703111004513e+004 9.613256289525e-001 1.200649999924e+002 1.585342473668e+002 
1.300000000000e+001 9.699932533816e+004 9.613256284535e-001 1.200649999989e+002 1.585342496182e+002 
1.333000000000e+001 9.696754063113e+004 9.613256283811e-001 1.200649999998e+002 1.585342499447e+002 
1.367000000000e+001 9.693479275114e+004 9.613256283706e-001 1.200650000000e+002 1.585342499922e+002 
1.400000000000e+001 9.690300804410e+004 9.613256283692e-001 1.200650000000e+002 1.585342499985e+002 
1.433000000000e+001 9.687122333707e+004 9.613256283690e-001 1.200650000000e+002 1.585342499994e+002 
1.467000000000e+001 9.683847545712e+004 9.613256283690e-001 1.200650000000e+002 1.585342499996e+002 
1.500000000000e+001 9.680669075014e+004 9.613256283690e-001 1.200650000000e+002 1.585342499996e+002 
1.533000000000e+001 9.677490604320e+004 9.613256283690e-001 1.200650000000e+002 1.585342499996e+002 
1.567000000000e+001 9.674215816339e+004 9.613256283690e-001 1.200650000000e+002 1.585342499996e+002 
1.600000000000e+001 9.671037345657e+004 9.613256283690e-001 1.200650000000e+002 1.585342499996e+002 
1.633000000000e+001 9.667858874983e+004 9.613256283690e-001 1.200650000000e+002 1.585342499996e+002 
1.667000000000e+001 9.664584087025e+004 9.613256283690e-001 1.200650000000e+002 1.585342499996e+002 
1.700000000000e+001 9.661405616367e+004 9.613256283690e-001 1.200650000000e+002 1.585342499996e+002 
1.733000000000e+001 9.658227145721e+004 9.613256283690e-001 1.200650000000e+002 1.585342499996e+002 
1.767000000000e+001 9.654952357793e+004 9.613256283690e-001 1.200650000000e+002 1.585342499996e+002 
1.800000000000e+001 9.651773887168e+004 9.613256283690e-001 1.200650000000e+002 1.585342499996e+002 
1.833000000000e+001 9.648595416557e+004 9.613256283690e-001 1.200650000000e+002 1.585342499996e+002 
1.867000000000e+001 9.645320628667e+004 9.613256283690e-001 1.200650000000e+002 1.585342499996e+002 
1.900000000000e+001 9.642142158083e+004 9.613256283690e-001 1.200650000000e+002 1.585342499996e+002 
1.933000000000e+001 9.638963687513e+004 9.613256283690e-001 1.200650000000e+002 1.585342499996e+002 
1.967000000000e+001 9.635688899671e+004 9.613256283690e-001 1.200650000000e+002 1.585342499996e+002 
2.000000000000e+001 9.632510429135e+004 9.613256283690e-001 1.200650000000e+002 1.585342499996e+002 
2.033000000000e+001 9.629331958617e+004 9.613256283690e-001 1.200650000000e+002 1.585342499996e+002 
2.067000000000e+001 9.626057170830e+004 9.613256283690e-001 1.200650000000e+002 1.585342499996e+002 
2.100000000000e+001 9.622878700350e+004 9.613256283690e-001 1.200650000000e+002 1.585342499996e+002 
2.133000000000e+001 9.619700229887e+004 9.613256283690e-001 1.200650000000e+002 1.585342499996e+002 
2.167000000000e+001 9.616425442161e+004 9.613256283690e-001 1.200650000000e+002 1.585342499996e+002 
2.200000000000e+001 9.613246971739e+004 9.613256283690e-001 1.200650000000e+002 1.585342499996e+002 
2.233000000000e+001 9.610068501341e+004 9.613256283690e-001 1.200650000000e+002 1.585342499996e+002 
2.267000000000e+001 9.606793713681e+004 9.613256283690e-001 1.200650000000e+002 1.585342499996e+002 
2.300000000000e+001 9.603615243329e+004 9.613256283690e-001 1.200650000000e+002 1.585342499996e+002 
2.333000000000e+001 9.600436773003e+004 9.613256283690e-001 1.200650000000e+002 1.585342499996e+002 
2.367000000000e+001 9.597161985419e+004 9.613256283690e-001 1.200650000000e+002 1.585342499996e+002 
2.400000000000e+001 9.593983515143e+004 9.613256283690e-001 1.200650000000e+002 1.585342499996e+002 
2.433000000000e+001 9.590805044891e+004 9.613256283689e-001 1.200650000000e+002 1.585342499997e+002 
2.467000000000e+001 9.587530257388e+004 9.613256283691e-001 1.200650000000e+002 1.585342499991e+002 
2.500000000000e+001 9.584351787194e+004 9.613256283685e-001 1.200650000000e+002 1.585342500014e+002 
2.533000000000e+001 9.581173317030e+004 9.613256283706e-001 1.200650000000e+002 1.585342499929e+002 
2.567000000000e+001 9.577898529623e+004 9.613256283626e-001 1.200650000000e+002 1.585342500249e+002 
2.600000000000e+001 9.574720059526e+004 9.613256283935e-001 1.200650000000e+002 1.585342499013e+002 
2.633000000000e+001 9.571541589459e+004 9.613256282743e-001 1.200650000000e+002 1.585342503793e+002 
2.667000000000e+001 9.568266802160e+004 9.613256287247e-001 1.200650000000e+002 1.585342485727e+002 
2.700000000000e+001 9.565088332154e+004 9.613256269870e-001 1.200650000000e+002 1.585342555420e+002 
2.733000000000e+001 9.561909862225e+004 9.613256337041e-001 1.200650000000e+002 1.585342286027e+002 
2.767000000000e+001 9.558635074925e+004 9.613256083177e-001 1.200650000000e+002 1.585343304170e+002 
2.800000000000e+001 9.555456605472e+004 9.613257062519e-001 1.200650000000e+002 1.585339376434e+002 
2.833000000000e+001 9.552278134009e+004 9.613253276970e-001 1.200650000000e+002 1.585354558720e+002 
2.867000000000e+001 9.549003353237e+004 9.613267584130e-001 1.200650000000e+002 1.585297178825e+002 
2.900000000000e+001 9.545824859569e+004 9.613212391775e-001 1.200650000000e+002 1.585518535201e+002 
2.933000000000e+001 9.542646482109e+004 9.613425748199e-001 1.200650000000e+002 1.584662894264e+002 
2.967000000000e+001 9.539371341052e+004 9.612618767407e-001 1.200650000000e+002 1.587900030188e+002 
3.000000000000e+001 9.536194227770e+004 9.615740853984e-001 1.200650000000e+002 1.575387025703e+002 
3.033000000000e+001 9.533288441796e+004 1.000000000000e+000 1.200650000000e+002 0.000000000000e+000 
3.067000000000e+001 9.530537544438e+004 1.000000000000e+000 1.200650000000e+002 0.000000000000e+000 
3.100000000000e+001 9.527867555896e+004 1.000000000000e+000 1.200650000000e+002 0.000000000000e+000 
3.133000000000e+001 9.525197567425e+004 1.000000000000e+000 1.200650000000e+002 0.000000000000e+000 
3.167000000000e+001 9.522446670288e+004 1.000000000000e+000 1.200650000000e+002 0.000000000000e+000 
3.200000000000e+001 9.519776681965e+004 1.000000000000e+000 1.200650000000e+002 0.000000000000e+000 
3.233000000000e+001 9.517106693716e+004 1.000000000000e+000 1.200650000000e+002 0.000000000000e+000 
3.267000000000e+001 9.514355796817e+004 1.000000000000e+000 1.200650000000e+002 0.000000000000e+000 
3.300000000000e+001 9.511685808735e+004 1.000000000000e+000 1.200650000000e+002 0.000000000000e+000 
3.333000000000e+001 9.509015820747e+004 1.000000000000e+000 1.200650000000e+002 0.000000000000e+000 
3.367000000000e+001 9.506264924134e+004 1.000000000000e+000 1.200650000000e+002 0.000000000000e+000 
3.400000000000e+001 9.503594936350e+004 1.000000000000e+000 1.200650000000e+002 0.000000000000e+000 
3.433000000000e+001 9.500924948674e+004 1.000000000000e+000 1.200650000000e+002 0.000000000000e+000 
3.467000000000e+001 9.498174052394e+004 1.000000000000e+000 1.200650000000e+002 0.000000000000e+000 
3.500000000000e+001 9.495504064940e+004 1.000000000000e+000 1.200650000000e+002 0.000000000000e+000 
3.533000000000e+001 9.492834077605e+004 1.000000000000e+000 1.200650000000e+002 0.000000000000e+000 
3.567000000000e+001 9.490083181689e+004 1.000000000000e+000 1.200650000000e+002 0.000000000000e+000 
3.600000000000e+001 9.487413194613e+004 1.000000000000e+000 1.200650000000e+002 0.000000000000e+000 
3.633000000000e+001 9.484743207675e+004 1.000000000000e+000 1.200650000000e+002 0.000000000000e+000 
3.667000000000e+001 9.481992312203e+004 1.000000000000e+000 1.200650000000e+002 0.000000000000e+000 
3.700000000000e+001 9.479322325569e+004 1.000000000000e+000 1.200649999999e+002 0.000000000000e+000 
3.733000000000e+001 9.476652339098e+004 1.000000000000e+000 1.200649999998e+002 0.000000000000e+000 
3.767000000000e+001 9.473901444108e+004 1.000000000000e+000 1.200649999992e+002 0.000000000000e+000 
3.800000000000e+001 9.471231457961e+004 1.000000000000e+000 1.200649999973e+002 0.000000000000e+000 
3.833000000000e+001 9.468561471986e+004 1.000000000000e+000 1.200649999920e+002 0.000000000000e+000 
3.867000000000e+001 9.465810577539e+004 1.000000000000e+000 1.200649999757e+002 0.000000000000e+000 
3.900000000000e+001 9.463140591940e+004 1.000000000000e+000 1.200649999312e+002 0.000000000000e+000 
3.933000000000e+001 9.460470606553e+004 1.000000000000e+000 1.200649998170e+002 0.000000000000e+000 
3.967000000000e+001 9.457719712727e+004 1.000000000000e+000 1.200649995051e+002 0.000000000000e+000 
4.000000000000e+001 9.455049727757e+004 1.000000000000e+000 1.200649987429e+002 0.000000000000e+000 
4.033000000000e+001 9.452379743002e+004 1.000000000000e+000 1.200649969705e+002 0.000000000000e+000 
4.067000000000e+001 9.449628849844e+004 1.000000000000e+000 1.200649926115e+002 0.000000000000e+000 
4.100000000000e+001 9.446958865531e+004 1.000000000000e+000 1.200649829961e+002 0.000000000000e+000 
4.133000000000e+001 9.444288881464e+004 1.000000000000e+000 1.200649625518e+002 0.000000000000e+000 
4.167000000000e+001 9.441537989038e+004 1.000000000000e+000 1.200649168897e+002 0.000000000000e+000 
4.200000000000e+001 9.438868005476e+004 1.000000000000e+000 1.200648250937e+002 0.000000000000e+000 
4.233000000000e+001 9.436198022177e+004 1.000000000000e+000 1.200646454330e+002 0.000000000000e+000 
4.267000000000e+001 9.433447130571e+004 1.000000000000e+000 1.200642782230e+002 0.000000000000e+000 
4.300000000000e+001 9.430777147808e+004 1.000000000000e+000 1.200636002157e+002 0.000000000000e+000 
4.333000000000e+001 9.428107165321e+004 1.000000000000e+000 1.200623717852e+002 0.000000000000e+000 
4.367000000000e+001 9.425356274555e+004 1.000000000000e+000 1.200600589662e+002 0.000000000000e+000 
4.400000000000e+001 9.422686292631e+004 1.000000000000e+000 1.200561114856e+002 0.000000000000e+000 
4.433000000000e+001 9.420016311003e+004 1.000000000000e+000 1.200494577800e+002 0.000000000000e+000 
4.467000000000e+001 9.417265421160e+004 1.000000000000e+000 1.200378526476e+002 0.000000000000e+000 
4.500000000000e+001 9.414595440151e+004 1.000000000000e+000 1.200194419758e+002 0.000000000000e+000 
4.533000000000e+001 9.411925459462e+004 1.000000000000e+000 1.199904471343e+002 0.000000000000e+000 
4.567000000000e+001 9.409174570586e+004 1.000000000000e+000 1.199433650931e+002 0.000000000000e+000 
4.600000000000e+001 9.406504590524e+004 1.000000000000e+000 1.198736113936e+002 0.000000000000e+000 
4.633000000000e+001 9.403834610777e+004 1.000000000000e+000 1.197705739349e+002 0.000000000000e+000 
4.667000000000e+001 9.401083722892e+004 1.000000000000e+000 1.196141265363e+002 0.000000000000e+000 
4.700000000000e+001 9.398413743801e+004 1.000000000000e+000 1.193967707718e+002 0.000000000000e+000 
4.733000000000e+001 9.395743765060e+004 1.000000000000e+000 1.190946094436e+002 0.000000000000e+000 
4.767000000000e+001 9.392992878223e+004 1.000000000000e+000 1.186638746600e+002 0.000000000000e+000 