 TITLE = "Time curves in points"
 VARIABLES = "TIME "  "PRESSURE1"  "CARBON1"  "WATER1"  "VELOCITY_X1"  "VELOCITY_Y1"  "VELOCITY_Z1"  "DENSITY1"  "VISCOSITY1" 
 ZONE T="POINT=POINTOB"
0.000000000000e+00 2.991870150000e+07 0.000000000000e+00 1.000000000000e+00 0.000000000000e+00 0.000000000000e+00 0.000000000000e+00 1.045000000000e+03 2.535000000000e-04 
5.790000000000e+05 3.031048130729e+07 0.000000000000e+00 1.000000000000e+00 -2.443833379811e-21 0.000000000000e+00 3.086690180817e-05 1.045000000000e+03 2.535000000000e-04 
