 TITLE = "Time curves in points"
 VARIABLES = "TIME "  "Analytical"  "MUFTE_UG" 
 ZONE T="POINT=POINTOB"
	 864000		0.00015				0.00015	
	1728000		0.00128              0.00127
	2592000		0.0215              0.0211
	3456000		0.121               0.120
	3888000		0.18679             0.1866
	4320000		0.205               0.204
	4752000		0.218               0.215
	5270400		0.22775				0.222
	5443200		0.231000            0.220
	6048000		0.229607            0.215
	6912000		0.216             0.210
	7776000		0.210            0.205
	8640000		0.201               0.202
	9504000		0.195            0.196
	10368000	0.194            0.195
	11232000	0.193            0.193
	12096000	0.192               0.192
	12960000	0.191               0.191